

     ************************************************************************
     *************** Dalton - An Electronic Structure Program ***************
     ************************************************************************

    This is output from DALTON release Dalton2024.0-dev (2024)
         ( Web site: http://daltonprogram.org )

   ----------------------------------------------------------------------------

    NOTE:
     
    Dalton is an experimental code for the evaluation of molecular
    properties using (MC)SCF, DFT, CI, and CC wave functions.
    The authors accept no responsibility for the performance of
    the code or for the correctness of the results.
     
    The code (in whole or part) is provided under a licence and
    is not to be reproduced for further distribution without
    the written permission of the authors or their representatives.
     
    See the home page "http://daltonprogram.org" for further information.
     
    If results obtained with this code are published,
    the appropriate citations would be both of:
     
       K. Aidas, C. Angeli, K. L. Bak, V. Bakken,
       R. Bast, L. Boman, O. Christiansen, R. Cimiraglia,
       S. Coriani, P. Dahle, E. K. Dalskov, U. Ekstroem,
       T. Enevoldsen, J. J. Eriksen, P. Ettenhuber, B. Fernandez,
       L. Ferrighi, H. Fliegl, L. Frediani, K. Hald, A. Halkier,
       C. Haettig, H. Heiberg, T. Helgaker, A. C. Hennum,
       H. Hettema, E. Hjertenaes, S. Hoest, I.-M. Hoeyvik,
       M. F. Iozzi, B. Jansik, H. J. Aa. Jensen, D. Jonsson,
       P. Joergensen, J. Kauczor, S. Kirpekar,
       T. Kjaergaard, W. Klopper, S. Knecht, R. Kobayashi, H. Koch,
       J. Kongsted, A. Krapp, K. Kristensen, A. Ligabue,
       O. B. Lutnaes, J. I. Melo, K. V. Mikkelsen, R. H. Myhre,
       C. Neiss, C. B. Nielsen, P. Norman, J. Olsen,
       J. M. H. Olsen, A. Osted, M. J. Packer, F. Pawlowski,
       T. B. Pedersen, P. F. Provasi, S. Reine, Z. Rinkevicius,
       T. A. Ruden, K. Ruud, V. Rybkin, P. Salek, C. C. M. Samson,
       A. Sanchez de Meras, T. Saue, S. P. A. Sauer,
       B. Schimmelpfennig, K. Sneskov, A. H. Steindal,
       K. O. Sylvester-Hvid, P. R. Taylor, A. M. Teale,
       E. I. Tellgren, D. P. Tew, A. J. Thorvaldsen, L. Thoegersen,
       O. Vahtras, M. A. Watson, D. J. D. Wilson, M. Ziolkowski
       and H. Agren,
       "The Dalton quantum chemistry program system",
       WIREs Comput. Mol. Sci. 2014, 4:269-284 (doi: 10.1002/wcms.1172)
     
    and
     
       Dalton, a molecular electronic structure program,
       Release Dalton2024.0-dev (2024), see http://daltonprogram.org
   ----------------------------------------------------------------------------

    Authors in alphabetical order (Major contribution(s) in parenthesis):

  Kestutis Aidas,              Vilnius University,        Lithuania   (QM/MM)
  Celestino Angeli,            University of Ferrara,     Italy       (NEVPT2)
  Juan J. Aucar,               Northeast National UniversiArgentina   (LRESC, Relativistic Effects on EFG)
  Keld L. Bak,                 UNI-C,                     Denmark     (AOSOPPA, non-adiabatic coupling, magnetic properties)
  Vebjoern Bakken,             University of Oslo,        Norway      (DALTON; geometry optimizer, symmetry detection)
  Radovan Bast,                UiT The Arctic U. of NorwayNorway      (DALTON installation and execution frameworks)
  Pablo Baudin,                University of Valencia,    Spain       (Cholesky excitation energies)
  Linus Boman,                 NTNU,                      Norway      (Cholesky decomposition and subsystems)
  Bruno N. Cabral Tenorio,     Technical Univ. of Denmark,Denmark     (Lanczos-based CC methods)
  Ove Christiansen,            Aarhus University,         Denmark     (CC module)
  Renzo Cimiraglia,            University of Ferrara,     Italy       (NEVPT2)
  Sonia Coriani,               Technical Univ. of Denmark,Denmark     (CC and RESPONS modules)
  Janusz Cukras,               University of Warsaw,      Poland      (MChD in RESPONS)
  Paal Dahle,                  University of Oslo,        Norway      (Parallelization)
  Erik K. Dalskov,             UNI-C,                     Denmark     (SOPPA)
  Thomas Enevoldsen,           Univ. of Southern Denmark, Denmark     (SOPPA)
  Janus J. Eriksen,            Aarhus University,         Denmark     (Polarizable embedding, TDA)
  Rasmus Faber,                Technical Univ. of Denmark,Denmark     (Vib.avg. NMR w. SOPPA, parallel AO-SOPPA, CVS-CC and EOMCC)
  Tobias Fahleson,             KTH Stockholm,             Sweden      (Damped cubic response)
  Berta Fernandez,             U. of Santiago de CompostelSpain       (Doublet spin, ESR in RESPONS)
  Lara Ferrighi,               Aarhus University,         Denmark     (PCM Cubic response)
  Heike Fliegl,                University of Oslo,        Norway      (CCSD(R12))
  Luca Frediani,               UiT The Arctic U. of NorwayNorway      (PCM)
  Emmanuel Fromager,           Univ. Strasbourg,          France      (MC-srDFT)
  Bin Gao,                     UiT The Arctic U. of NorwayNorway      (Gen1Int library)
  Andre S. P. Gomes,           CNRS/Universite de Lille,  France      (Frozen density embedding)
  Christof Haettig,            Ruhr-University Bochum,    Germany     (CC module)
  Kasper Hald,                 Aarhus University,         Denmark     (CC module)
  Asger Halkier,               Aarhus University,         Denmark     (CC module)
  Frederik Beyer Hansen,       University of Copenhagen,  Denmark     (Parallel AO-SOPPA)
  Erik D. Hedegaard,           Univ. of Southern Denmark, Denmark     (Polarizable embedding, QM/MM, and MC-srDFT)
  Hanne Heiberg,               University of Oslo,        Norway      (Geometry analysis, selected one-electron integrals)
  Trygve Helgaker,             University of Oslo,        Norway      (DALTON; ABACUS, ERI, DFT modules, London, and much more)
  Alf Christian Hennum,        University of Oslo,        Norway      (Parity violation)
  Hinne Hettema,               University of Auckland,    New Zealand (Quadratic response in RESPONS; SIRIUS supersymmetry)
  Andreas E. Hillers-Bendtsen, University of Copenhagen,  Denmark     (MP3)
  Eirik Hjertenaes,            NTNU,                      Norway      (Cholesky decomposition)
  Nicolai Machholdt Hoeyer,    Aarhus University,         Denmark     (MP3)
  Pi A. B. Haase,              University of Copenhagen,  Denmark     (Triplet AO-SOPPA)
  Maria Francesca Iozzi,       University of Oslo,        Norway      (RPA)
  Christoph Jacob,             TU Braunschweig            Germany     (Frozen density embedding)
  Brano Jansik,                Technical Univ. of Ostrava Czech Rep.  (DFT cubic response)
  Hans Joergen Aa. Jensen,     Univ. of Southern Denmark, Denmark     (DALTON; SIRIUS, RESPONS, ABACUS, MC-srDFT, and much more)
  Dan Jonsson,                 UiT The Arctic U. of NorwayNorway      (Cubic response in RESPONS module)
  Poul Joergensen,             Aarhus University,         Denmark     (RESPONS, ABACUS, and CC modules)
  Maciej Kaminski,             University of Warsaw,      Poland      (CPPh in RESPONS)
  Joanna Kauczor,              Linkoeping University,     Sweden      (Complex polarization propagator (CPP) module)
  Sheela Kirpekar,             Univ. of Southern Denmark, Denmark     (Mass-velocity & Darwin integrals)
  Frederik Oersted Kjeldal,    Technical Univ. of Denmark,Denmark     (MP3)
  Erik Kjellgren,              Univ. of Southern Denmark, Denmark     (MC-srDFT)
  Wim Klopper,                 KIT Karlsruhe,             Germany     (R12 code in CC, SIRIUS, and ABACUS modules)
  Stefan Knecht,               ETH Zurich,                Switzerland (Parallel CI and MCSCF, MC-srDFT)
  Rika Kobayashi,              Australian National Univ., Australia   (DIIS in CC, London in MCSCF)
  Henrik Koch,                 NTNU,                      Norway      (CC module, Cholesky decomposition)
  Jacob Kongsted,              Univ. of Southern Denmark, Denmark     (Polarizable embedding, polarizable density embedding, QM/MM)
  Andrea Ligabue,              University of Modena,      Italy       (CTOCD, AOSOPPA)
  Nanna H. List,               Univ. of Southern Denmark, Denmark     (Polarizable embedding)
  Ola B. Lutnaes,              University of Oslo,        Norway      (DFT Hessian)
  Juan I. Melo,                University of Buenos Aires,Argentina   (LRESC, Relativistic Effects on NMR Shieldings)
  Kurt V. Mikkelsen,           University of Copenhagen,  Denmark     (MC-SCRF, QM/MM, and MP3)
  Rolf H. Myhre,               NTNU,                      Norway      (Subsystems and CC3)
  Christian Neiss,             Univ. Erlangen-Nuernberg,  Germany     (CCSD(R12))
  Christian B. Nielsen,        University of Copenhagen,  Denmark     (QM/MM)
  Patrick Norman,              KTH Stockholm,             Sweden      (Cubic response and complex frequency response in RESPONS)
  Jeppe Olsen,                 Aarhus University,         Denmark     (SIRIUS CI/density modules)
  Jogvan Magnus H. Olsen,      Aarhus University,         Denmark     (Polarizable embedding and polarizable density embedding)
  Anders Osted,                Copenhagen University,     Denmark     (QM/MM)
  Martin J. Packer,            University of Sheffield,   UK          (SOPPA)
  Filip Pawlowski,             Kazimierz Wielki UniversityPoland      (CC3)
  Morten N. Pedersen,          Univ. of Southern Denmark, Denmark     (Polarizable embedding)
  Thomas B. Pedersen,          University of Oslo,        Norway      (Cholesky decomposition)
  Patricio F. Provasi,         University of Northeastern,Argentina   (Analysis of coupling constants in localized orbitals)
  Peter Reinholdt,             Univ. of Southern Denmark, Denmark     (Polarizable embedding and polarizable density embedding)
  Zilvinas Rinkevicius,        KTH Stockholm,             Sweden      (open-shell DFT, ESR)
  Elias Rudberg,               KTH Stockholm,             Sweden      (DFT grid and basis info)
  Torgeir A. Ruden,            University of Oslo,        Norway      (Numerical derivatives in ABACUS)
  Kenneth Ruud,                UiT The Arctic U. of NorwayNorway      (DALTON; ABACUS magnetic properties and much more)
  Pawel Salek,                 KTH Stockholm,             Sweden      (DALTON; DFT code)
  Claire C. M. Samson,         University of Karlsruhe    Germany     (Boys localization, r12 integrals in ERI)
  Alfredo Sanchez de Meras,    University of Valencia,    Spain       (CC module, Cholesky decomposition)
  Trond Saue,                  Paul Sabatier University,  France      (direct Fock matrix construction)
  Stephan P. A. Sauer,         University of Copenhagen,  Denmark     (SOPPA(CCSD), SOPPA prop., AOSOPPA, vibrational g-factors)
  Bernd Schimmelpfennig,       Forschungszentrum KarlsruheGermany     (AMFI module)
  Anna K. Schnack-Petersen,    University of Copenhagen,  Denmark     (RPA(D) and HRPA(D) properties in AOSOPPA)
  Kristian Sneskov,            Aarhus University,         Denmark     (Polarizable embedding, QM/MM)
  Arnfinn H. Steindal,         UiT The Arctic U. of NorwayNorway      (parallel QM/MM, polarizable embedding)
  Casper Steinmann,            Aalborg University,        Denmark     (QFIT, polarizable embedding)
  K. O. Sylvester-Hvid,        University of Copenhagen,  Denmark     (MC-SCRF)
  Peter R. Taylor,             VLSCI/Univ. of Melbourne,  Australia   (Symmetry handling ABACUS, integral transformation)
  Andrew M. Teale,             University of Nottingham,  England     (DFT-AC, DFT-D)
  David P. Tew,                University of Bristol,     England     (CCSD(R12))
  Julien Toulouse,             Sorbonne Univ.,            France      (MC-srDFT)
  Olav Vahtras,                KTH Stockholm,             Sweden      (Triplet response, spin-orbit, ESR, TDDFT, open-shell DFT)
  Lucas Visscher,              Vrije Universiteit AmsterdaNetherlands (Frozen density embedding)
  David J. Wilson,             La Trobe University,       Australia   (DFT Hessian and DFT magnetizabilities)
  Luna Zamok,                  University of Copenhagen,  Denmark     (Block Lanczos RPA solver in SOPPA module)
  Hans Agren,                  KTH Stockholm,             Sweden      (SIRIUS module, RESPONS, MC-SCRF solvation)
 --------------------------------------------------------------------------------

     Date and time (Linux)  : Mon Jun 16 14:09:20 2025
     Host name              : D49833                                  

 * Work memory size             :    64000000 =  488.28 megabytes.

 * Directories for basis set searches:
   1) /home/jmikk/progs/dalton-oslo/parse_test
   2) /home/jmikk/progs/dalton-oslo/build64_debug/basis


Compilation information
-----------------------

 Who compiled             | jmikk
 Host                     | D49833
 System                   | Linux-5.15.153.1-microsoft-standard-WSL2
 CMake generator          | Unix Makefiles
 Processor                | x86_64
 64-bit integers          | ON
 MPI                      | OFF
 Fortran compiler         | /usr/bin/gfortran
 Fortran compiler version | GNU Fortran (Ubuntu 11.4.0-1ubuntu1~22.04) 11.4.0
 C compiler               | /usr/bin/gcc
 C compiler version       | gcc (Ubuntu 11.4.0-1ubuntu1~22.04) 11.4.0
 C++ compiler             | /usr/bin/g++
 C++ compiler version     | g++ (Ubuntu 11.4.0-1ubuntu1~22.04) 11.4.0
 Static linking           | OFF
 Last Git revision        | a8ec504efc8617fbbbdc5a3c3ca78f198e1da686
 Git branch               | crk-oslo
 Configuration time       | 2025-05-15 13:47:21.760463

 * Sequential calculation.


   Content of the .dal input file
 ----------------------------------

**DALTON INPUT
.RUN RESPONSE
**WAVE FUNCTIONS
.DFT
PBE0
**RESPONSE
*C6
.ATMMOM
 1
.PRINT
 5
**END OF DALTON INPUT


   Content of the .mol file
 ----------------------------

BASIS
aug-cc-pVTZ
H2O
Using the STO-3G
Atomtypes=2 NoSymmetry
Charge=8.0 Atoms=1
O     0.0000000000    0.0000000000    0.0000000000
Charge=1.0 Atoms=2
H1   -1.4536519600    0.0000000000   -1.1216873200
H2    1.4536519600    0.0000000000   -1.1216873200


       *******************************************************************
       *********** Output from DALTON general input processing ***********
       *******************************************************************

 --------------------------------------------------------------------------------
   Overall default print level:    0
   Print level for DALTON.STAT:    1

    HERMIT 1- and 2-electron integral sections will be executed
    "Old" integral transformation used (limited to max 255 basis functions)
    Wave function sections will be executed (SIRIUS module)
    Dynamic molecular response properties section will be executed (RESPONSE module)
 --------------------------------------------------------------------------------


   ****************************************************************************
   *************** Output of molecule and basis set information ***************
   ****************************************************************************


    The two title cards from your ".mol" input:
    --------------------------------------------------------------------------------
 1: H2O
 2: Using the STO-3G
    --------------------------------------------------------------------------------

  Atomic type no.    1
  --------------------
  Nuclear charge:   8.00000
  Number of symmetry independent centers:    1
  Number of basis sets to read;    2
  Basis set file used for this atomic type with Z =   8 :
     "/home/jmikk/progs/dalton-oslo/build64_debug/basis/aug-cc-pVTZ"

  Atomic type no.    2
  --------------------
  Nuclear charge:   1.00000
  Number of symmetry independent centers:    2
  Number of basis sets to read;    2
  Basis set file used for this atomic type with Z =   1 :
     "/home/jmikk/progs/dalton-oslo/build64_debug/basis/aug-cc-pVTZ"


                         SYMGRP: Point group information
                         -------------------------------

@    Point group: C1 


                                 Isotopic Masses
                                 ---------------

                           O          15.994915
                           H1          1.007825
                           H2          1.007825

                       Total mass:    18.010565 amu
                       Natural abundance:  99.730 %

 Center-of-mass coordinates (a.u.):    0.000000    0.000000   -0.125533
 Center-of-mass coordinates (Angs):    0.000000    0.000000   -0.066429


  Atoms and basis sets
  --------------------

  Number of atom types :    2
  Total number of atoms:    3

  Basis set used is "aug-cc-pVTZ" from the basis set library.

  label    atoms   charge   prim   cont     basis
  ----------------------------------------------------------------------
  O           1    8.0000    58    46      [11s6p3d2f|5s4p3d2f]                               
  H2          2    1.0000    25    23      [6s3p2d|4s3p2d]                                    
  ----------------------------------------------------------------------
  total:      3   10.0000   108    92
  ----------------------------------------------------------------------
  Spherical harmonic basis used.

  Threshold for neglecting AO integrals:  1.00D-12


  Cartesian Coordinates (a.u.)
  ----------------------------

  Total number of coordinates:    9
  O       :     1  x   0.0000000000    2  y   0.0000000000    3  z   0.0000000000
  H1      :     4  x  -1.4536519600    5  y   0.0000000000    6  z  -1.1216873200
  H2      :     7  x   1.4536519600    8  y   0.0000000000    9  z  -1.1216873200


   Interatomic separations (in Angstrom):
   --------------------------------------

            O           H1          H2    
            ------      ------      ------
 O     :    0.000000
 H1    :    0.971626    0.000000
 H2    :    0.971626    1.538479    0.000000


  Max    interatomic separation is    1.5385 Angstrom (    2.9073 Bohr)
  between atoms    3 and    2, "H2    " and "H1    ".

  Min HX interatomic separation is    0.9716 Angstrom (    1.8361 Bohr)


  Bond distances (Angstrom):
  --------------------------

                  atom 1     atom 2       distance
                  ------     ------       --------
  bond distance:  H1         O            0.971626
  bond distance:  H2         O            0.971626


  Bond angles (degrees):
  ----------------------

                  atom 1     atom 2     atom 3         angle
                  ------     ------     ------         -----
  bond angle:     H1         O          H2           104.690




 Principal moments of inertia (u*A**2) and principal axes
 --------------------------------------------------------

   IA       0.630690          1.000000    0.000000    0.000000
   IB       1.192719          0.000000    0.000000    1.000000
   IC       1.823409          0.000000    1.000000    0.000000


 Rotational constants
 --------------------

@    The molecule is planar.

               A                   B                   C

         801311.8919         423719.9691         277161.6485 MHz
           26.728888           14.133777            9.245117 cm-1


@  Nuclear repulsion energy :    9.058053557724 Hartree


                     .---------------------------------------.
                     | Starting in Integral Section (HERMIT) |
                     `---------------------------------------'



 ***************************************************************************************
 ****************** Output from **INTEGRALS input processing (HERMIT) ******************
 ***************************************************************************************


 - Using defaults, no **INTEGRALS input found

 Default print level:        1

 Calculation of one- and two-electron Hamiltonian integrals.

 Center of mass  (bohr):      0.000000000000      0.000000000000     -0.125533488070
 Operator center (bohr):      0.000000000000      0.000000000000      0.000000000000
 Gauge origin    (bohr):      0.000000000000      0.000000000000      0.000000000000
 Dipole origin   (bohr):      0.000000000000      0.000000000000      0.000000000000

Calculation of 2-electron integrals are postponed until they are needed.


     ************************************************************************
     ************************** Output from HERINT **************************
     ************************************************************************



                      Nuclear contribution to dipole moments
                      --------------------------------------

                 au               Debye          C m (/(10**-30)

      x      0.00000000         0.00000000         0.00000000
      y      0.00000000         0.00000000         0.00000000
      z     -2.24337464        -5.70208921       -19.02012227


  Total CPU  time used in HERMIT:   0.04 seconds
  Total wall time used in HERMIT:   0.05 seconds


                        .----------------------------------.
                        | End of Integral Section (HERMIT) |
                        `----------------------------------'



                   .--------------------------------------------.
                   | Starting in Wave Function Section (SIRIUS) |
                   `--------------------------------------------'


 *** Output from Huckel module :

     Using EWMO model:          T
     Using EHT  model:          F
     Number of Huckel orbitals each symmetry:    7

 EWMO - Energy Weighted Maximum Overlap - is a Huckel type method,
        which normally is better than Extended Huckel Theory.
 Reference: Linderberg and Ohrn, Propagators in Quantum Chemistry (Wiley, 1973)

 Huckel EWMO eigenvalues for symmetry :  1
          -20.684741      -1.601845      -0.778326      -0.688865      -0.616200
           -0.237198      -0.172725

 **********************************************************************
 *SIRIUS* a direct, restricted step, second order MCSCF program       *
 **********************************************************************

 
     Date and time (Linux)  : Mon Jun 16 14:09:20 2025
     Host name              : D49833                                  

 Title lines from ".mol" input file:
     H2O
     Using the STO-3G

 Print level on unit LUPRI =   2 is   0
 Print level on unit LUW4  =   2 is   5

@    Restricted, closed shell Kohn-Sham DFT calculation.

@    Time-dependent Kohn-Sham DFT calculation (TD-DFT).

 Initial molecular orbitals are obtained according to
 ".MOSTART EWMO  " input option

     Wave function specification
     ============================
@    Wave function type        --- KS-DFT ---
@    Number of closed shell electrons          10
@    Number of electrons in active shells       0
@    Total charge of the molecule               0

@    Spin multiplicity and 2 M_S                1         0
@    Total number of symmetries                 1 (point group: C1 )
@    Reference state symmetry                   1 (irrep name : A  )
 
     This is a DFT calculation of type: PBE0
 Weighted mixed functional:
               HF exchange:    0.25000
                      PBEx:    0.75000
                      PBEc:    1.00000

     Orbital specifications
     ======================
@    Abelian symmetry species          All |    1
@                                          |  A  
                                       --- |  ---
@    Occupied SCF orbitals               5 |    5
@    Secondary orbitals                 87 |   87
@    Total number of orbitals           92 |   92
@    Number of basis functions          92 |   92

     Optimization information
     ========================
@    Number of configurations                 1
@    Number of orbital rotations            435
     ------------------------------------------
@    Total number of variables              436

     Maximum number of Fock   iterations      0
     Maximum number of DIIS   iterations     60
     Maximum number of QC-SCF iterations     60
     Threshold for SCF convergence     1.00D-05
 
     This is a DFT calculation of type: PBE0
 Weighted mixed functional:
               HF exchange:    0.25000
                      PBEx:    0.75000
                      PBEc:    1.00000


 ***********************************************
 ***** DIIS acceleration of SCF iterations *****
 ***********************************************

 C1-DIIS algorithm; max error vectors =    8

 Iter      Total energy        Error norm    Delta(E)  DIIS dim.
 -----------------------------------------------------------------------------

---> (Re)generating AOTWOINT


     ************************************************************************
     ************************** Output from HERINT **************************
     ************************************************************************


 Threshold for neglecting two-electron integrals:  1.00D-12
 HERMIT - Number of two-electron integrals written:     4251341 ( 46.4% )
 HERMIT - Megabytes written:                             48.753

  Total CPU  time used in TWOINT:   0.64 seconds
  Total wall time used in TWOINT:   0.65 seconds
  Time used in TWOINT     is       0.64 seconds
      K-S energy, electrons, error :     -6.976583321335   9.9999999951   -4.87D-09
@  1    -76.2032246876        1.78583D+00   -7.62D+01    1
      Virial theorem: -V/T =      2.000997
@    MULPOP   O      -0.85; H1      0.42; H2      0.42; 
   1  Level shift: doubly occupied orbital energies shifted by -2.00D-01
 -----------------------------------------------------------------------------
      K-S energy, electrons, error :     -6.981510836119  10.0000000207    2.07D-08
@  2    -76.3687857541        5.48169D-01   -1.66D-01    2
      Virial theorem: -V/T =      2.009700
@    MULPOP   O      -0.37; H1      0.19; H2      0.19; 
   2  Level shift: doubly occupied orbital energies shifted by -1.00D-01
 -----------------------------------------------------------------------------
      K-S energy, electrons, error :     -7.032382576249  10.0000000294    2.94D-08
@  3    -76.3783213971        1.70661D-01   -9.54D-03    3
      Virial theorem: -V/T =      2.002861
@    MULPOP   O      -0.40; H1      0.20; H2      0.20; 
   3  Level shift: doubly occupied orbital energies shifted by -5.00D-02
 -----------------------------------------------------------------------------
      K-S energy, electrons, error :     -6.983068353584  10.0000000292    2.92D-08
@  4    -76.3788385490        1.47199D-01   -5.17D-04    4
      Virial theorem: -V/T =      2.008916
@    MULPOP   O      -0.34; H1      0.17; H2      0.17; 
   4  Level shift: doubly occupied orbital energies shifted by -5.00D-02
 -----------------------------------------------------------------------------
      K-S energy, electrons, error :     -7.003510551691  10.0000000306    3.06D-08
@  5    -76.3796837805        1.18717D-02   -8.45D-04    5
      Virial theorem: -V/T =      2.006289
@    MULPOP   O      -0.37; H1      0.18; H2      0.18; 
   5  Level shift: doubly occupied orbital energies shifted by -1.25D-02
 -----------------------------------------------------------------------------
      K-S energy, electrons, error :     -7.005571402423  10.0000000308    3.08D-08
@  6    -76.3796912846        1.42515D-03   -7.50D-06    6
      Virial theorem: -V/T =      2.006062
@    MULPOP   O      -0.37; H1      0.19; H2      0.19; 
 -----------------------------------------------------------------------------
      K-S energy, electrons, error :     -7.005345715802  10.0000000308    3.08D-08
@  7    -76.3796913957        6.84887D-05   -1.11D-07    7
      Virial theorem: -V/T =      2.006088
@    MULPOP   O      -0.37; H1      0.19; H2      0.19; 
 -----------------------------------------------------------------------------
      K-S energy, electrons, error :     -7.005353419468  10.0000000308    3.08D-08
@  8    -76.3796913962        8.35648D-06   -5.03D-10    8

@ *** DIIS converged in   8 iterations !
@     Converged SCF energy, gradient:    -76.379691396190    8.36D-06
    - total time used in SIRFCK :              1.09 seconds


 *** SCF orbital energy analysis ***

 Only the 20 lowest virtual orbital energies printed in each symmetry.

 Number of electrons        :   10
 Closed shell orbitals      :    5

 Sym       Kohn-Sham orbital energies

1 A     -19.21620016    -1.03977881    -0.54603081    -0.40913070    -0.33268867
         -0.01347362     0.02812849     0.08620243     0.10734890     0.11418832
          0.12636511     0.16193110     0.18236614     0.20394204     0.23231625
          0.23712213     0.31772731     0.34074110     0.35860493     0.48633415
          0.53360709     0.58511317     0.60566260     0.60781386     0.69624919

    E(LUMO) :    -0.01347362 au (symmetry 1)
  - E(HOMO) :    -0.33268867 au (symmetry 1)
  ------------------------------------------
    gap     :     0.31921505 au

 --- Writing SIRIFC interface file

--------------------------------------------------------------------------------


     .-----------------------------------------------.
     | DFT KT IPs [a.u. & eV] from Koopmans' theorem |
     `-----------------------------------------------'


     DFT KT symmetry 1 ( A  ) in point group C1  -- 5 principal poles with pole strength 1

   ============  ============  ============  ============  ============
      19.216200      1.039779      0.546031      0.409131      0.332689
     522.899405     28.293821     14.858254     11.133013      9.052919
   ============  ============  ============  ============  ============

@ Summary of DFT KT ionization potentials [eV]:

@ Symmetry 1 (A  ) :   522.899      28.294      14.858      11.133       9.053

  === End of DFT KT output ===
--------------------------------------------------------------------------------


 CPU and wall time for SCF :      24.781      24.822


                       .-----------------------------------.
                       | --- Final results from SIRIUS --- |
                       `-----------------------------------'


@    Spin multiplicity:           1
@    Spatial symmetry:            1 ( irrep  A   in C1  )
@    Total charge of molecule:    0

@    Final DFT energy:            -76.379691396190                 
@    Nuclear repulsion:             9.058053557724
@    Electronic energy:           -85.437744953914

@    Final gradient norm:           0.000008356480

@    Finite field energy contribution from nuclear dipole moment:      0.000000000000
@    Final energy + FF nucdip:    -76.379691396190

 
     Date and time (Linux)  : Mon Jun 16 14:09:45 2025
     Host name              : D49833                                  

File label for MO orbitals:  16Jun25   FOCKDIIS

 (Only coefficients > 0.0100 are printed.)

 Molecular orbitals for symmetry species 1  (A  )
 ------------------------------------------------

    Orbital         1        2        3        4        5        6        7
   1 O   :1s    -0.9966   0.0176   0.0000   0.0008   0.0000   0.0028  -0.0000
   2 O   :1s     0.0004  -0.8408   0.0000   0.3341  -0.0000   0.2174  -0.0000
   4 O   :1s    -0.0032   0.0367  -0.0000   0.2169   0.0000   0.3038   0.0000
   5 O   :1s    -0.0012  -0.0341   0.0000   0.1049  -0.0000   0.5947   0.0000
   6 O   :2px    0.0000  -0.0000  -0.7632   0.0000  -0.0000   0.0000   0.1941
   7 O   :2py   -0.0000   0.0000  -0.0000  -0.0000  -0.9328   0.0000  -0.0000
   8 O   :2pz    0.0039   0.1582  -0.0000   0.8209  -0.0000  -0.1991   0.0000
   9 O   :2px   -0.0000   0.0000   0.0432  -0.0000   0.0000   0.0000   0.0154
  10 O   :2py    0.0000  -0.0000   0.0000   0.0000   0.0208  -0.0000   0.0000
  11 O   :2pz   -0.0013  -0.0023   0.0000  -0.0338   0.0000  -0.0055  -0.0000
  12 O   :2px   -0.0000   0.0000   0.1152   0.0000   0.0000  -0.0000   0.3271
  14 O   :2pz   -0.0013  -0.0284   0.0000  -0.0736   0.0000  -0.1282  -0.0000
  15 O   :2px   -0.0000   0.0000  -0.0075   0.0000  -0.0000  -0.0000   0.6936
  16 O   :2py   -0.0000   0.0000  -0.0000  -0.0000  -0.0477   0.0000  -0.0000
  17 O   :2pz    0.0001   0.0031   0.0000   0.0186  -0.0000  -0.0060  -0.0000
  21 O   :3d1+   0.0000  -0.0000   0.0107  -0.0000   0.0000   0.0000   0.0001
  24 O   :3d1-   0.0000  -0.0000   0.0000   0.0000   0.0146  -0.0000   0.0000
  25 O   :3d0   -0.0001  -0.0042  -0.0000  -0.0161   0.0000   0.0061   0.0000
  26 O   :3d1+   0.0000   0.0000   0.0168   0.0000  -0.0000  -0.0000  -0.0168
  31 O   :3d1+   0.0000  -0.0000  -0.0041  -0.0000  -0.0000  -0.0000  -0.0901
  32 O   :3d2+   0.0006   0.0007  -0.0000   0.0113   0.0000   0.0146  -0.0000
  47 H1  :1s    -0.0032  -0.3848   0.6071  -0.3610  -0.0000  -0.0792   0.0078
  48 H1  :1s     0.0027   0.1167  -0.0794   0.0040   0.0000  -0.0890   0.1737
  49 H1  :1s     0.0028   0.1580  -0.1747   0.0592   0.0000  -0.3121   0.8644
  50 H1  :1s     0.0000   0.0014  -0.0029  -0.0032  -0.0000  -0.5320   2.7457
  51 H1  :2px    0.0002  -0.0107   0.0082  -0.0087  -0.0000   0.0071  -0.0026
  52 H1  :2py   -0.0000   0.0000  -0.0000  -0.0000  -0.0113   0.0000  -0.0000
  53 H1  :2pz    0.0000  -0.0072   0.0120   0.0027  -0.0000   0.0033  -0.0038
  54 H1  :2px    0.0012  -0.0103   0.0180  -0.0315  -0.0000  -0.0044   0.0309
  55 H1  :2py    0.0000  -0.0000   0.0000   0.0000  -0.0318  -0.0000   0.0000
  56 H1  :2pz    0.0008  -0.0068   0.0274   0.0021   0.0000  -0.0029   0.0315
  57 H1  :2px    0.0006   0.0035  -0.0047  -0.0062   0.0000  -0.0047   0.0919
  58 H1  :2py   -0.0000   0.0000  -0.0000  -0.0000  -0.0241   0.0000  -0.0000
  59 H1  :2pz    0.0005   0.0029   0.0027   0.0114   0.0000  -0.0036   0.1358
  68 H1  :3d1+   0.0002  -0.0003   0.0035   0.0015   0.0000  -0.0042   0.0168
  70 H2  :1s    -0.0032  -0.3848  -0.6071  -0.3610   0.0000  -0.0792  -0.0078
  71 H2  :1s     0.0027   0.1167   0.0794   0.0040  -0.0000  -0.0890  -0.1737
  72 H2  :1s     0.0028   0.1580   0.1747   0.0592   0.0000  -0.3121  -0.8644
  73 H2  :1s     0.0000   0.0014   0.0029  -0.0032   0.0000  -0.5320  -2.7457
  74 H2  :2px   -0.0002   0.0107   0.0082   0.0087   0.0000  -0.0071  -0.0026
  75 H2  :2py   -0.0000   0.0000  -0.0000  -0.0000  -0.0113   0.0000  -0.0000
  76 H2  :2pz    0.0000  -0.0072  -0.0120   0.0027  -0.0000   0.0033   0.0038
  77 H2  :2px   -0.0012   0.0103   0.0180   0.0315   0.0000   0.0044   0.0309
  78 H2  :2py    0.0000  -0.0000   0.0000   0.0000  -0.0318  -0.0000   0.0000
  79 H2  :2pz    0.0008  -0.0068  -0.0274   0.0021  -0.0000  -0.0029  -0.0315
  80 H2  :2px   -0.0006  -0.0035  -0.0047   0.0062  -0.0000   0.0047   0.0919
  81 H2  :2py   -0.0000   0.0000  -0.0000  -0.0000  -0.0241   0.0000  -0.0000
  82 H2  :2pz    0.0005   0.0029  -0.0027   0.0114   0.0000  -0.0036  -0.1358
  91 H2  :3d1+  -0.0002   0.0003   0.0035  -0.0015  -0.0000   0.0042   0.0168

    Orbital         8        9       10       11       12       13       14
   1 O   :1s    -0.0092  -0.0000  -0.0043   0.0000  -0.0000   0.0101   0.0000
   2 O   :1s    -0.1540   0.0000  -0.2630   0.0000  -0.0000   0.0428  -0.0000
   3 O   :1s    -0.0079   0.0000  -0.0175   0.0000  -0.0000   0.0028  -0.0000
   4 O   :1s     1.4307  -0.0000   0.7999  -0.0000   0.0000  -0.4141   0.0000
   5 O   :1s     5.7234   0.0000   1.5497  -0.0000   0.0000  -3.3924   0.0000
   6 O   :2px    0.0000   0.0000   0.0000   0.4244   0.0728   0.0000  -0.0000
   7 O   :2py   -0.0000   0.3087  -0.0000  -0.0000  -0.0000  -0.0000   0.0000
   8 O   :2pz    0.3192   0.0000  -0.0180  -0.0000  -0.0000   0.0249  -0.0000
   9 O   :2px    0.0000  -0.0000   0.0000  -0.0976   0.0151  -0.0000   0.0000
  10 O   :2py    0.0000  -0.0279   0.0000   0.0000   0.0000   0.0000  -0.0000
  11 O   :2pz   -0.0773  -0.0000  -0.0435   0.0000   0.0000   0.0138   0.0000
  12 O   :2px    0.0000  -0.0000  -0.0000  -0.9242   1.1856   0.0000   0.0000
  13 O   :2py    0.0000  -0.0179   0.0000   0.0000   0.0000   0.0000  -0.0000
  14 O   :2pz   -0.4496  -0.0000  -0.3913   0.0000   0.0000  -0.4462   0.0000
  15 O   :2px   -0.0000   0.0000  -0.0000  -2.1134   2.9251   0.0000  -0.0000
  16 O   :2py   -0.0000  -1.5542  -0.0000  -0.0000  -0.0000  -0.0000  -0.0000
  17 O   :2pz   -1.4421   0.0000   1.2287   0.0000   0.0000  -0.5108  -0.0000
  24 O   :3d1-   0.0000  -0.0242   0.0000   0.0000   0.0000   0.0000   0.0000
  25 O   :3d0   -0.0056  -0.0000   0.0158   0.0000  -0.0000   0.0155   0.0000
  26 O   :3d1+  -0.0000   0.0000  -0.0000   0.0729  -0.0155   0.0000  -0.0000
  27 O   :3d2+   0.0319  -0.0000   0.0539   0.0000   0.0000  -0.0112   0.0000
  28 O   :3d2-  -0.0000   0.0000   0.0000   0.0000   0.0000   0.0000  -0.5341
  29 O   :3d1-  -0.0000   0.1359  -0.0000  -0.0000  -0.0000  -0.0000   0.0000
  30 O   :3d0    0.0371  -0.0000  -0.0629  -0.0000  -0.0000   0.4764  -0.0000
  31 O   :3d1+  -0.0000   0.0000  -0.0000   0.1632  -0.5921  -0.0000  -0.0000
  32 O   :3d2+   0.0719  -0.0000   0.0511   0.0000   0.0000  -0.4063   0.0000
  41 O   :4f2-   0.0000  -0.0000  -0.0000   0.0000   0.0000  -0.0000   0.0762
  43 O   :4f0    0.0012  -0.0000   0.0122   0.0000   0.0000  -0.0492   0.0000
  44 O   :4f1+   0.0000  -0.0000   0.0000   0.0017   0.0371  -0.0000   0.0000
  45 O   :4f2+  -0.0027   0.0000  -0.0214   0.0000  -0.0000   0.0235  -0.0000
  46 O   :4f3+  -0.0000  -0.0000  -0.0000  -0.0140   0.0285   0.0000   0.0000
  47 H1  :1s     0.0910   0.0000   0.1968   0.1714   0.2298   0.1577  -0.0000
  48 H1  :1s    -0.2715  -0.0000  -0.3692  -0.4527   0.7364   0.1645  -0.0000
  49 H1  :1s    -2.4443  -0.0000  -0.0436  -2.9029   2.2368   1.5999  -0.0000
  50 H1  :1s    -0.9476   0.0000  -0.5406  -3.1655   1.6708   0.2076  -0.0000
  51 H1  :2px   -0.0057   0.0000  -0.0115  -0.0109   0.0034   0.0020  -0.0000
  54 H1  :2px   -0.1965   0.0000  -0.1217  -0.1821   0.1083  -0.1089  -0.0000
  55 H1  :2py    0.0000   0.0154   0.0000   0.0000   0.0000   0.0000  -0.2325
  56 H1  :2pz   -0.1420  -0.0000  -0.0917  -0.1943   0.0819   0.2461  -0.0000
  57 H1  :2px   -0.7019  -0.0000  -0.4685  -1.0569  -0.3021  -0.6516  -0.0000
  58 H1  :2py   -0.0000   0.3437  -0.0000  -0.0000  -0.0000  -0.0000  -1.6324
  59 H1  :2pz   -0.5334  -0.0000  -0.4558  -1.0454  -0.1046   1.0373  -0.0000
  63 H1  :3d1+  -0.0111  -0.0000  -0.0090  -0.0125   0.0065   0.0100   0.0000
  65 H1  :3d2-   0.0000   0.0445   0.0000   0.0000   0.0000   0.0000  -0.1964
  66 H1  :3d1-   0.0000   0.0277   0.0000   0.0000   0.0000   0.0000  -0.1794
  67 H1  :3d0    0.0080  -0.0000  -0.0057  -0.0462  -0.0118   0.1927  -0.0000
  68 H1  :3d1+  -0.0818  -0.0000  -0.0567  -0.0978  -0.0493   0.0365   0.0000
  69 H1  :3d2+  -0.0535  -0.0000  -0.0389  -0.0284  -0.0969  -0.0912  -0.0000
  70 H2  :1s     0.0910  -0.0000   0.1968  -0.1714  -0.2298   0.1577   0.0000
  71 H2  :1s    -0.2715   0.0000  -0.3692   0.4527  -0.7364   0.1645  -0.0000
  72 H2  :1s    -2.4443  -0.0000  -0.0436   2.9029  -2.2368   1.5999  -0.0000
  73 H2  :1s    -0.9476  -0.0000  -0.5406   3.1655  -1.6708   0.2076   0.0000
  74 H2  :2px    0.0057  -0.0000   0.0115  -0.0109   0.0034  -0.0020  -0.0000
  77 H2  :2px    0.1965  -0.0000   0.1217  -0.1821   0.1083   0.1089   0.0000
  78 H2  :2py    0.0000   0.0154   0.0000   0.0000   0.0000   0.0000   0.2325
  79 H2  :2pz   -0.1420   0.0000  -0.0917   0.1943  -0.0819   0.2461   0.0000
  80 H2  :2px    0.7019   0.0000   0.4685  -1.0569  -0.3021   0.6516  -0.0000
  81 H2  :2py   -0.0000   0.3437  -0.0000  -0.0000  -0.0000  -0.0000   1.6324
  82 H2  :2pz   -0.5334  -0.0000  -0.4558   1.0454   0.1046   1.0373   0.0000
  86 H2  :3d1+   0.0111  -0.0000   0.0090  -0.0125   0.0065  -0.0100  -0.0000
  88 H2  :3d2-  -0.0000  -0.0445  -0.0000  -0.0000  -0.0000  -0.0000  -0.1964
  89 H2  :3d1-   0.0000   0.0277   0.0000   0.0000   0.0000   0.0000   0.1794
  90 H2  :3d0    0.0080  -0.0000  -0.0057   0.0462   0.0118   0.1927   0.0000
  91 H2  :3d1+   0.0818   0.0000   0.0567  -0.0978  -0.0493  -0.0365  -0.0000
  92 H2  :3d2+  -0.0535  -0.0000  -0.0389   0.0284   0.0969  -0.0912   0.0000

    Orbital        15
   7 O   :2py    0.2331
  10 O   :2py   -0.0497
  13 O   :2py    1.5268
  16 O   :2py    1.9990
  24 O   :3d1-  -0.0207
  29 O   :3d1-  -0.4452
  40 O   :4f3-   0.0702
  42 O   :4f1-   0.0357
  55 H1  :2py   -0.2827
  58 H1  :2py   -1.7854
  65 H1  :3d2-  -0.2631
  66 H1  :3d1-  -0.1468
  78 H2  :2py   -0.2827
  81 H2  :2py   -1.7854
  88 H2  :3d2-   0.2631
  89 H2  :3d1-  -0.1468

  Total CPU  time used in SIRIUS :  24.84 seconds
  Total wall time used in SIRIUS :  24.89 seconds

 
     Date and time (Linux)  : Mon Jun 16 14:09:45 2025
     Host name              : D49833                                  


                     .---------------------------------------.
                     | End of Wave Function Section (SIRIUS) |
                     `---------------------------------------'



                 .------------------------------------------------.
                 | Starting in Dynamic Property Section (RESPONS) |
                 `------------------------------------------------'


 ----------------------------------------------------------------------------------------
  RESPONSE  -  an MCSCF, MC-srDFT, DFT, SOPPA and SOPPA-srDFT response property program
 ----------------------------------------------------------------------------------------


 -------- OUTPUT FROM RESPONSE INPUT PROCESSING --------




 CHANGES OF DEFAULTS IN C6INP:
 -----------------------------


 PRINT LEVEL IN C6 ROUTINES. IPRC6 =    5

 General print level in RESPONS is IPRRSP =         5
  CPU  time used in dftint     is   9.90 seconds
  WALL time used in dftint     is  18.50 seconds
  grid points, tot elec.
     76706       10.0000000308
  
  MBIS converged!
  
  Final converged results
  Qatom
    1    -0.87582032
    2     0.43791127
    3     0.43791127
  CPU  time used in mbis       is   1.59 seconds
  WALL time used in mbis       is   1.59 seconds
  CPU  time used in num_aoint_opt is  10.87 seconds
  WALL time used in num_aoint_opt is  10.88 seconds

   12 C6/C8 module calculated for operators with symmetry no.    1 and labels:

          AM010800
          AM020100
          AM030100
          AM01080x
          AM01080y
          AM01080z
          AM02010x
          AM02010y
          AM02010z
          AM03010x
          AM03010y
          AM03010z

 INFO SIR_INTOPEN, old integral transformation not found as expected, ICASE = 2
 - ICASE = 1: MO integral file MOTWOINT does not exist
 - ICASE = 2: no MO integrals on MOTWOINT
 - ICASE = 3: transformation level on MOTWOINT not sufficient

 2-el. integral transformation level 4: Total CPU and WALL times (sec)       1.128       1.129

 Sorting integrals to Dirac format: Total CPU and WALL times (sec)       0.011       0.012


   SCF energy         :      -76.379691396189656
 -- inactive part     :      -85.437744953913793
 -- nuclear repulsion :        9.058053557724133


                    *****************************************
                    *** DFT response calculation (TD-DFT) ***
                    *****************************************

 ----------------------------------------------------------------
 ----- Linear response calculation
 ----- Symmetry of excitation/property operator(s)    1  ( A  )
 ----------------------------------------------------------------

 Number of excitations of this symmetry            0
 Number of response properties of this symmetry    0
 Number of C6/C8 properties of this symmetry      12

 Orbital rotation list JWOP for symmetry1
    1 :     1    6
    2 :     1    7
    3 :     1    8
    4 :     1    9
    5 :     1   10
    6 :     1   11
    7 :     1   12
    8 :     1   13
    9 :     1   14
   10 :     1   15
   11 :     1   16
   12 :     1   17
   13 :     1   18
   14 :     1   19
   15 :     1   20
   16 :     1   21
   17 :     1   22
   18 :     1   23
   19 :     1   24
   20 :     1   25
   21 :     1   26
   22 :     1   27
   23 :     1   28
   24 :     1   29
   25 :     1   30
   26 :     1   31
   27 :     1   32
   28 :     1   33
   29 :     1   34
   30 :     1   35
   31 :     1   36
   32 :     1   37
   33 :     1   38
   34 :     1   39
   35 :     1   40
   36 :     1   41
   37 :     1   42
   38 :     1   43
   39 :     1   44
   40 :     1   45
   41 :     1   46
   42 :     1   47
   43 :     1   48
   44 :     1   49
   45 :     1   50
   46 :     1   51
   47 :     1   52
   48 :     1   53
   49 :     1   54
   50 :     1   55
   51 :     1   56
   52 :     1   57
   53 :     1   58
   54 :     1   59
   55 :     1   60
   56 :     1   61
   57 :     1   62
   58 :     1   63
   59 :     1   64
   60 :     1   65
   61 :     1   66
   62 :     1   67
   63 :     1   68
   64 :     1   69
   65 :     1   70
   66 :     1   71
   67 :     1   72
   68 :     1   73
   69 :     1   74
   70 :     1   75
   71 :     1   76
   72 :     1   77
   73 :     1   78
   74 :     1   79
   75 :     1   80
   76 :     1   81
   77 :     1   82
   78 :     1   83
   79 :     1   84
   80 :     1   85
   81 :     1   86
   82 :     1   87
   83 :     1   88
   84 :     1   89
   85 :     1   90
   86 :     1   91
   87 :     1   92
   88 :     2    6
   89 :     2    7
   90 :     2    8
   91 :     2    9
   92 :     2   10
   93 :     2   11
   94 :     2   12
   95 :     2   13
   96 :     2   14
   97 :     2   15
   98 :     2   16
   99 :     2   17
  100 :     2   18
  101 :     2   19
  102 :     2   20
  103 :     2   21
  104 :     2   22
  105 :     2   23
  106 :     2   24
  107 :     2   25
  108 :     2   26
  109 :     2   27
  110 :     2   28
  111 :     2   29
  112 :     2   30
  113 :     2   31
  114 :     2   32
  115 :     2   33
  116 :     2   34
  117 :     2   35
  118 :     2   36
  119 :     2   37
  120 :     2   38
  121 :     2   39
  122 :     2   40
  123 :     2   41
  124 :     2   42
  125 :     2   43
  126 :     2   44
  127 :     2   45
  128 :     2   46
  129 :     2   47
  130 :     2   48
  131 :     2   49
  132 :     2   50
  133 :     2   51
  134 :     2   52
  135 :     2   53
  136 :     2   54
  137 :     2   55
  138 :     2   56
  139 :     2   57
  140 :     2   58
  141 :     2   59
  142 :     2   60
  143 :     2   61
  144 :     2   62
  145 :     2   63
  146 :     2   64
  147 :     2   65
  148 :     2   66
  149 :     2   67
  150 :     2   68
  151 :     2   69
  152 :     2   70
  153 :     2   71
  154 :     2   72
  155 :     2   73
  156 :     2   74
  157 :     2   75
  158 :     2   76
  159 :     2   77
  160 :     2   78
  161 :     2   79
  162 :     2   80
  163 :     2   81
  164 :     2   82
  165 :     2   83
  166 :     2   84
  167 :     2   85
  168 :     2   86
  169 :     2   87
  170 :     2   88
  171 :     2   89
  172 :     2   90
  173 :     2   91
  174 :     2   92
  175 :     3    6
  176 :     3    7
  177 :     3    8
  178 :     3    9
  179 :     3   10
  180 :     3   11
  181 :     3   12
  182 :     3   13
  183 :     3   14
  184 :     3   15
  185 :     3   16
  186 :     3   17
  187 :     3   18
  188 :     3   19
  189 :     3   20
  190 :     3   21
  191 :     3   22
  192 :     3   23
  193 :     3   24
  194 :     3   25
  195 :     3   26
  196 :     3   27
  197 :     3   28
  198 :     3   29
  199 :     3   30
  200 :     3   31
  201 :     3   32
  202 :     3   33
  203 :     3   34
  204 :     3   35
  205 :     3   36
  206 :     3   37
  207 :     3   38
  208 :     3   39
  209 :     3   40
  210 :     3   41
  211 :     3   42
  212 :     3   43
  213 :     3   44
  214 :     3   45
  215 :     3   46
  216 :     3   47
  217 :     3   48
  218 :     3   49
  219 :     3   50
  220 :     3   51
  221 :     3   52
  222 :     3   53
  223 :     3   54
  224 :     3   55
  225 :     3   56
  226 :     3   57
  227 :     3   58
  228 :     3   59
  229 :     3   60
  230 :     3   61
  231 :     3   62
  232 :     3   63
  233 :     3   64
  234 :     3   65
  235 :     3   66
  236 :     3   67
  237 :     3   68
  238 :     3   69
  239 :     3   70
  240 :     3   71
  241 :     3   72
  242 :     3   73
  243 :     3   74
  244 :     3   75
  245 :     3   76
  246 :     3   77
  247 :     3   78
  248 :     3   79
  249 :     3   80
  250 :     3   81
  251 :     3   82
  252 :     3   83
  253 :     3   84
  254 :     3   85
  255 :     3   86
  256 :     3   87
  257 :     3   88
  258 :     3   89
  259 :     3   90
  260 :     3   91
  261 :     3   92
  262 :     4    6
  263 :     4    7
  264 :     4    8
  265 :     4    9
  266 :     4   10
  267 :     4   11
  268 :     4   12
  269 :     4   13
  270 :     4   14
  271 :     4   15
  272 :     4   16
  273 :     4   17
  274 :     4   18
  275 :     4   19
  276 :     4   20
  277 :     4   21
  278 :     4   22
  279 :     4   23
  280 :     4   24
  281 :     4   25
  282 :     4   26
  283 :     4   27
  284 :     4   28
  285 :     4   29
  286 :     4   30
  287 :     4   31
  288 :     4   32
  289 :     4   33
  290 :     4   34
  291 :     4   35
  292 :     4   36
  293 :     4   37
  294 :     4   38
  295 :     4   39
  296 :     4   40
  297 :     4   41
  298 :     4   42
  299 :     4   43
  300 :     4   44
  301 :     4   45
  302 :     4   46
  303 :     4   47
  304 :     4   48
  305 :     4   49
  306 :     4   50
  307 :     4   51
  308 :     4   52
  309 :     4   53
  310 :     4   54
  311 :     4   55
  312 :     4   56
  313 :     4   57
  314 :     4   58
  315 :     4   59
  316 :     4   60
  317 :     4   61
  318 :     4   62
  319 :     4   63
  320 :     4   64
  321 :     4   65
  322 :     4   66
  323 :     4   67
  324 :     4   68
  325 :     4   69
  326 :     4   70
  327 :     4   71
  328 :     4   72
  329 :     4   73
  330 :     4   74
  331 :     4   75
  332 :     4   76
  333 :     4   77
  334 :     4   78
  335 :     4   79
  336 :     4   80
  337 :     4   81
  338 :     4   82
  339 :     4   83
  340 :     4   84
  341 :     4   85
  342 :     4   86
  343 :     4   87
  344 :     4   88
  345 :     4   89
  346 :     4   90
  347 :     4   91
  348 :     4   92
  349 :     5    6
  350 :     5    7
  351 :     5    8
  352 :     5    9
  353 :     5   10
  354 :     5   11
  355 :     5   12
  356 :     5   13
  357 :     5   14
  358 :     5   15
  359 :     5   16
  360 :     5   17
  361 :     5   18
  362 :     5   19
  363 :     5   20
  364 :     5   21
  365 :     5   22
  366 :     5   23
  367 :     5   24
  368 :     5   25
  369 :     5   26
  370 :     5   27
  371 :     5   28
  372 :     5   29
  373 :     5   30
  374 :     5   31
  375 :     5   32
  376 :     5   33
  377 :     5   34
  378 :     5   35
  379 :     5   36
  380 :     5   37
  381 :     5   38
  382 :     5   39
  383 :     5   40
  384 :     5   41
  385 :     5   42
  386 :     5   43
  387 :     5   44
  388 :     5   45
  389 :     5   46
  390 :     5   47
  391 :     5   48
  392 :     5   49
  393 :     5   50
  394 :     5   51
  395 :     5   52
  396 :     5   53
  397 :     5   54
  398 :     5   55
  399 :     5   56
  400 :     5   57
  401 :     5   58
  402 :     5   59
  403 :     5   60
  404 :     5   61
  405 :     5   62
  406 :     5   63
  407 :     5   64
  408 :     5   65
  409 :     5   66
  410 :     5   67
  411 :     5   68
  412 :     5   69
  413 :     5   70
  414 :     5   71
  415 :     5   72
  416 :     5   73
  417 :     5   74
  418 :     5   75
  419 :     5   76
  420 :     5   77
  421 :     5   78
  422 :     5   79
  423 :     5   80
  424 :     5   81
  425 :     5   82
  426 :     5   83
  427 :     5   84
  428 :     5   85
  429 :     5   86
  430 :     5   87
  431 :     5   88
  432 :     5   89
  433 :     5   90
  434 :     5   91
  435 :     5   92


 Perturbation symmetry.     KSYMOP:           1
 Perturbation spin symmetry.TRPLET:           F
 Orbital variables.         KZWOPT:         435
 Configuration variables.   KZCONF:           0
 Total number of variables. KZVAR :         435


 Solving RSPC6 for
 OPERATOR TYPE:    AM010800
 OPERATOR SYMMETRY:   1


 Solving RSPC6 for
 OPERATOR TYPE:    AM020100
 OPERATOR SYMMETRY:   1


 Solving RSPC6 for
 OPERATOR TYPE:    AM030100
 OPERATOR SYMMETRY:   1


 Solving RSPC6 for
 OPERATOR TYPE:    AM01080x
 OPERATOR SYMMETRY:   1


 Solving RSPC6 for
 OPERATOR TYPE:    AM01080y
 OPERATOR SYMMETRY:   1


 Solving RSPC6 for
 OPERATOR TYPE:    AM01080z
 OPERATOR SYMMETRY:   1


 Solving RSPC6 for
 OPERATOR TYPE:    AM02010x
 OPERATOR SYMMETRY:   1


 Solving RSPC6 for
 OPERATOR TYPE:    AM02010y
 OPERATOR SYMMETRY:   1


 Solving RSPC6 for
 OPERATOR TYPE:    AM02010z
 OPERATOR SYMMETRY:   1


 Solving RSPC6 for
 OPERATOR TYPE:    AM03010x
 OPERATOR SYMMETRY:   1


 Solving RSPC6 for
 OPERATOR TYPE:    AM03010y
 OPERATOR SYMMETRY:   1


 Solving RSPC6 for
 OPERATOR TYPE:    AM03010z
 OPERATOR SYMMETRY:   1


 **** RSPC6 moment iteration no.  0

 OPERATOR TYPE    :AM010800
 OPERATOR SYMMETRY:   1



 ---  SOLVING SETS OF LINEAR EQUATIONS FOR LINEAR RESPONSE PROPERTIES ---

 Operator symmetry = 1  ( A  ); triplet =   F


 ** RSPCTL MICROITERATION NUMBER    1

 GP * SOLUTION vector at frequency     0.00000 a.u.
 after    1 linear transformations is      3.95854772D-01
 INERTIA (POS,ZER,NEG) of reduced matrix is    2    0    0
 Determinant of reduced matrix is  3.51 * 10 **  0.0

       No.  Residual tot.,    conf., and orb.    Bnorm      Frequency 
      ----------------------------------------------------------------
         1    6.07573D-01  0.00D+00  6.08D-01  3.83D-01    0.00000D+00

 ** RSPCTL MICROITERATION NUMBER    2

 GP * SOLUTION vector at frequency     0.00000 a.u.
 after    2 linear transformations is      4.83151953D-01
 INERTIA (POS,ZER,NEG) of reduced matrix is    4    0    0
 Determinant of reduced matrix is  1.42 * 10 **  1.0

       No.  Residual tot.,    conf., and orb.    Bnorm      Frequency 
      ----------------------------------------------------------------
         1    9.81239D-02  0.00D+00  9.81D-02  5.02D-01    0.00000D+00

 ** RSPCTL MICROITERATION NUMBER    3

 GP * SOLUTION vector at frequency     0.00000 a.u.
 after    3 linear transformations is      4.85235857D-01
 INERTIA (POS,ZER,NEG) of reduced matrix is    6    0    0
 Determinant of reduced matrix is  6.95 * 10 **  1.0

       No.  Residual tot.,    conf., and orb.    Bnorm      Frequency 
      ----------------------------------------------------------------
         1    2.17807D-02  0.00D+00  2.18D-02  5.13D-01    0.00000D+00

 ** RSPCTL MICROITERATION NUMBER    4

 GP * SOLUTION vector at frequency     0.00000 a.u.
 after    4 linear transformations is      4.85310602D-01
 INERTIA (POS,ZER,NEG) of reduced matrix is    8    0    0
 Determinant of reduced matrix is  7.14 * 10 **  2.0

       No.  Residual tot.,    conf., and orb.    Bnorm      Frequency 
      ----------------------------------------------------------------
         1    3.22906D-03  0.00D+00  3.23D-03  5.15D-01    0.00000D+00

 ** RSPCTL MICROITERATION NUMBER    5

 GP * SOLUTION vector at frequency     0.00000 a.u.
 after    5 linear transformations is      4.85311457D-01
 INERTIA (POS,ZER,NEG) of reduced matrix is   10    0    0
 Determinant of reduced matrix is  1.13 * 10 **  4.0

       No.  Residual tot.,    conf., and orb.    Bnorm      Frequency 
      ----------------------------------------------------------------
         1    2.15834D-04  0.00D+00  2.16D-04  5.15D-01    0.00000D+00

 *** THE REQUESTED    1 SOLUTION VECTORS CONVERGED

 Convergence of RSP solution vectors, threshold = 1.00D-03
 ---------------------------------------------------------------
 (dimension of paired reduced space:   10)
 RSP solution vector no.    1; norm of residual   4.19D-04

 *** RSPCTL MICROITERATIONS CONVERGED
 OPERATOR TYPE    :AM020100
 OPERATOR SYMMETRY:   1



 ---  SOLVING SETS OF LINEAR EQUATIONS FOR LINEAR RESPONSE PROPERTIES ---

 Operator symmetry = 1  ( A  ); triplet =   F


 --- Restart in LRST ---
 OPERATOR SYMMETRY               :    1
 HALF-DIMENSION OF REDUCED SPACE :    5
 IBTYP :    1   1   1   1   1

 .RESTLR:    5 old trial vectors used.

 ** RSPCTL MICROITERATION NUMBER    1

 GP * SOLUTION vector at frequency     0.00000 a.u.
 after    6 linear transformations is      2.87860839D-01
 INERTIA (POS,ZER,NEG) of reduced matrix is   12    0    0
 Determinant of reduced matrix is  2.80 * 10 **  4.0

       No.  Residual tot.,    conf., and orb.    Bnorm      Frequency 
      ----------------------------------------------------------------
         1    1.51859D-01  0.00D+00  1.52D-01  3.94D-01    0.00000D+00

 ** RSPCTL MICROITERATION NUMBER    2

 GP * SOLUTION vector at frequency     0.00000 a.u.
 after    7 linear transformations is      2.93975581D-01
 INERTIA (POS,ZER,NEG) of reduced matrix is   14    0    0
 Determinant of reduced matrix is  1.66 * 10 **  5.0

       No.  Residual tot.,    conf., and orb.    Bnorm      Frequency 
      ----------------------------------------------------------------
         1    3.66968D-02  0.00D+00  3.67D-02  4.08D-01    0.00000D+00

 ** RSPCTL MICROITERATION NUMBER    3

 GP * SOLUTION vector at frequency     0.00000 a.u.
 after    8 linear transformations is      2.94187602D-01
 INERTIA (POS,ZER,NEG) of reduced matrix is   16    0    0
 Determinant of reduced matrix is  1.15 * 10 **  6.0

       No.  Residual tot.,    conf., and orb.    Bnorm      Frequency 
      ----------------------------------------------------------------
         1    4.00873D-03  0.00D+00  4.01D-03  4.11D-01    0.00000D+00

 ** RSPCTL MICROITERATION NUMBER    4

 GP * SOLUTION vector at frequency     0.00000 a.u.
 after    9 linear transformations is      2.94189004D-01
 INERTIA (POS,ZER,NEG) of reduced matrix is   18    0    0
 Determinant of reduced matrix is  2.26 * 10 **  7.0

       No.  Residual tot.,    conf., and orb.    Bnorm      Frequency 
      ----------------------------------------------------------------
         1    1.87208D-04  0.00D+00  1.87D-04  4.11D-01    0.00000D+00

 *** THE REQUESTED    1 SOLUTION VECTORS CONVERGED

 Convergence of RSP solution vectors, threshold = 1.00D-03
 ---------------------------------------------------------------
 (dimension of paired reduced space:   18)
 RSP solution vector no.    1; norm of residual   4.56D-04

 *** RSPCTL MICROITERATIONS CONVERGED
 OPERATOR TYPE    :AM030100
 OPERATOR SYMMETRY:   1



 ---  SOLVING SETS OF LINEAR EQUATIONS FOR LINEAR RESPONSE PROPERTIES ---

 Operator symmetry = 1  ( A  ); triplet =   F


 --- Restart in LRST ---
 OPERATOR SYMMETRY               :    1
 HALF-DIMENSION OF REDUCED SPACE :    9
 IBTYP :    1   1   1   1   1   1   1   1   1

 .RESTLR:    9 old trial vectors used.

 ** RSPCTL MICROITERATION NUMBER    1

 GP * SOLUTION vector at frequency     0.00000 a.u.
 after   10 linear transformations is      2.94189000D-01
 INERTIA (POS,ZER,NEG) of reduced matrix is   20    0    0
 Determinant of reduced matrix is  2.68 * 10 **  7.0

       No.  Residual tot.,    conf., and orb.    Bnorm      Frequency 
      ----------------------------------------------------------------
         1    2.81818D-04  0.00D+00  2.82D-04  4.11D-01    0.00000D+00

 *** THE REQUESTED    1 SOLUTION VECTORS CONVERGED

 Convergence of RSP solution vectors, threshold = 1.00D-03
 ---------------------------------------------------------------
 (dimension of paired reduced space:   20)
 RSP solution vector no.    1; norm of residual   6.86D-04

 *** RSPCTL MICROITERATIONS CONVERGED
 OPERATOR TYPE    :AM01080x
 OPERATOR SYMMETRY:   1



 ---  SOLVING SETS OF LINEAR EQUATIONS FOR LINEAR RESPONSE PROPERTIES ---

 Operator symmetry = 1  ( A  ); triplet =   F


 --- Restart in LRST ---
 OPERATOR SYMMETRY               :    1
 HALF-DIMENSION OF REDUCED SPACE :   10
 IBTYP :    1   1   1   1   1   1   1   1   1   1

 .RESTLR:   10 old trial vectors used.

 ** RSPCTL MICROITERATION NUMBER    1

 GP * SOLUTION vector at frequency     0.00000 a.u.
 after   11 linear transformations is      4.19250746D+00
 INERTIA (POS,ZER,NEG) of reduced matrix is   22    0    0
 Determinant of reduced matrix is  1.00 * 10 **  8.0

       No.  Residual tot.,    conf., and orb.    Bnorm      Frequency 
      ----------------------------------------------------------------
         1    2.57492D-01  0.00D+00  2.57D-01  1.61D+00    0.00000D+00

 ** RSPCTL MICROITERATION NUMBER    2

 GP * SOLUTION vector at frequency     0.00000 a.u.
 after   12 linear transformations is      4.20321781D+00
 INERTIA (POS,ZER,NEG) of reduced matrix is   24    0    0
 Determinant of reduced matrix is  1.13 * 10 **  9.0

       No.  Residual tot.,    conf., and orb.    Bnorm      Frequency 
      ----------------------------------------------------------------
         1    1.71470D-02  0.00D+00  1.71D-02  1.63D+00    0.00000D+00

 ** RSPCTL MICROITERATION NUMBER    3

 GP * SOLUTION vector at frequency     0.00000 a.u.
 after   13 linear transformations is      4.20325405D+00
 INERTIA (POS,ZER,NEG) of reduced matrix is   26    0    0
 Determinant of reduced matrix is  1.44 * 10 ** 10.0

       No.  Residual tot.,    conf., and orb.    Bnorm      Frequency 
      ----------------------------------------------------------------
         1    7.80457D-04  0.00D+00  7.80D-04  1.63D+00    0.00000D+00

 *** THE REQUESTED    1 SOLUTION VECTORS CONVERGED

 Convergence of RSP solution vectors, threshold = 1.00D-03
 ---------------------------------------------------------------
 (dimension of paired reduced space:   26)
 RSP solution vector no.    1; norm of residual   4.78D-04

 *** RSPCTL MICROITERATIONS CONVERGED
 OPERATOR TYPE    :AM01080y
 OPERATOR SYMMETRY:   1



 ---  SOLVING SETS OF LINEAR EQUATIONS FOR LINEAR RESPONSE PROPERTIES ---

 Operator symmetry = 1  ( A  ); triplet =   F


 --- Restart in LRST ---
 OPERATOR SYMMETRY               :    1
 HALF-DIMENSION OF REDUCED SPACE :   13
 IBTYP :    1   1   1   1   1   1   1   1   1   1
            1   1   1

 .RESTLR:   13 old trial vectors used.

 ** RSPCTL MICROITERATION NUMBER    1

 GP * SOLUTION vector at frequency     0.00000 a.u.
 after   14 linear transformations is      6.85249690D+00
 INERTIA (POS,ZER,NEG) of reduced matrix is   28    0    0
 Determinant of reduced matrix is  2.25 * 10 ** 10.0

       No.  Residual tot.,    conf., and orb.    Bnorm      Frequency 
      ----------------------------------------------------------------
         1    9.98391D-01  0.00D+00  9.98D-01  2.21D+00    0.00000D+00

 ** RSPCTL MICROITERATION NUMBER    2

 GP * SOLUTION vector at frequency     0.00000 a.u.
 after   15 linear transformations is      7.14114641D+00
 INERTIA (POS,ZER,NEG) of reduced matrix is   30    0    0
 Determinant of reduced matrix is  6.78 * 10 ** 10.0

       No.  Residual tot.,    conf., and orb.    Bnorm      Frequency 
      ----------------------------------------------------------------
         1    2.05669D-01  0.00D+00  2.06D-01  2.49D+00    0.00000D+00

 ** RSPCTL MICROITERATION NUMBER    3

 GP * SOLUTION vector at frequency     0.00000 a.u.
 after   16 linear transformations is      7.14609269D+00
 INERTIA (POS,ZER,NEG) of reduced matrix is   32    0    0
 Determinant of reduced matrix is  6.89 * 10 ** 11.0

       No.  Residual tot.,    conf., and orb.    Bnorm      Frequency 
      ----------------------------------------------------------------
         1    1.48539D-02  0.00D+00  1.49D-02  2.52D+00    0.00000D+00

 ** RSPCTL MICROITERATION NUMBER    4

 GP * SOLUTION vector at frequency     0.00000 a.u.
 after   17 linear transformations is      7.14612683D+00
 INERTIA (POS,ZER,NEG) of reduced matrix is   34    0    0
 Determinant of reduced matrix is  2.99 * 10 ** 12.0

       No.  Residual tot.,    conf., and orb.    Bnorm      Frequency 
      ----------------------------------------------------------------
         1    1.21018D-03  0.00D+00  1.21D-03  2.52D+00    0.00000D+00

 *** THE REQUESTED    1 SOLUTION VECTORS CONVERGED

 Convergence of RSP solution vectors, threshold = 1.00D-03
 ---------------------------------------------------------------
 (dimension of paired reduced space:   34)
 RSP solution vector no.    1; norm of residual   4.81D-04

 *** RSPCTL MICROITERATIONS CONVERGED
 OPERATOR TYPE    :AM01080z
 OPERATOR SYMMETRY:   1



 ---  SOLVING SETS OF LINEAR EQUATIONS FOR LINEAR RESPONSE PROPERTIES ---

 Operator symmetry = 1  ( A  ); triplet =   F


 --- Restart in LRST ---
 OPERATOR SYMMETRY               :    1
 HALF-DIMENSION OF REDUCED SPACE :   17
 IBTYP :    1   1   1   1   1   1   1   1   1   1
            1   1   1   1   1   1   1

 .RESTLR:   17 old trial vectors used.

 ** RSPCTL MICROITERATION NUMBER    1

 GP * SOLUTION vector at frequency     0.00000 a.u.
 after   18 linear transformations is      5.23282905D+00
 INERTIA (POS,ZER,NEG) of reduced matrix is   36    0    0
 Determinant of reduced matrix is  6.41 * 10 ** 12.0

       No.  Residual tot.,    conf., and orb.    Bnorm      Frequency 
      ----------------------------------------------------------------
         1    3.08130D-01  0.00D+00  3.08D-01  1.93D+00    0.00000D+00

 ** RSPCTL MICROITERATION NUMBER    2

 GP * SOLUTION vector at frequency     0.00000 a.u.
 after   19 linear transformations is      5.24704294D+00
 INERTIA (POS,ZER,NEG) of reduced matrix is   38    0    0
 Determinant of reduced matrix is  5.27 * 10 ** 13.0

       No.  Residual tot.,    conf., and orb.    Bnorm      Frequency 
      ----------------------------------------------------------------
         1    2.38611D-02  0.00D+00  2.39D-02  1.96D+00    0.00000D+00

 ** RSPCTL MICROITERATION NUMBER    3

 GP * SOLUTION vector at frequency     0.00000 a.u.
 after   20 linear transformations is      5.24711317D+00
 INERTIA (POS,ZER,NEG) of reduced matrix is   40    0    0
 Determinant of reduced matrix is  8.82 * 10 ** 14.0

       No.  Residual tot.,    conf., and orb.    Bnorm      Frequency 
      ----------------------------------------------------------------
         1    1.31356D-03  0.00D+00  1.31D-03  1.96D+00    0.00000D+00

 *** THE REQUESTED    1 SOLUTION VECTORS CONVERGED

 Convergence of RSP solution vectors, threshold = 1.00D-03
 ---------------------------------------------------------------
 (dimension of paired reduced space:   40)
 RSP solution vector no.    1; norm of residual   6.69D-04

 *** RSPCTL MICROITERATIONS CONVERGED
 OPERATOR TYPE    :AM02010x
 OPERATOR SYMMETRY:   1



 ---  SOLVING SETS OF LINEAR EQUATIONS FOR LINEAR RESPONSE PROPERTIES ---

 Operator symmetry = 1  ( A  ); triplet =   F


 --- Restart in LRST ---
 OPERATOR SYMMETRY               :    1
 HALF-DIMENSION OF REDUCED SPACE :   20
 IBTYP :    1   1   1   1   1   1   1   1   1   1
            1   1   1   1   1   1   1   1   1   1

 .RESTLR:   20 old trial vectors used.

 ** RSPCTL MICROITERATION NUMBER    1

 GP * SOLUTION vector at frequency     0.00000 a.u.
 after   21 linear transformations is      2.01177423D-01
 INERTIA (POS,ZER,NEG) of reduced matrix is   42    0    0
 Determinant of reduced matrix is  4.79 * 10 ** 15.0

       No.  Residual tot.,    conf., and orb.    Bnorm      Frequency 
      ----------------------------------------------------------------
         1    4.71839D-02  0.00D+00  4.72D-02  3.67D-01    0.00000D+00

 ** RSPCTL MICROITERATION NUMBER    2

 GP * SOLUTION vector at frequency     0.00000 a.u.
 after   22 linear transformations is      2.01528932D-01
 INERTIA (POS,ZER,NEG) of reduced matrix is   44    0    0
 Determinant of reduced matrix is  4.14 * 10 ** 16.0

       No.  Residual tot.,    conf., and orb.    Bnorm      Frequency 
      ----------------------------------------------------------------
         1    4.18834D-03  0.00D+00  4.19D-03  3.69D-01    0.00000D+00

 ** RSPCTL MICROITERATION NUMBER    3

 GP * SOLUTION vector at frequency     0.00000 a.u.
 after   23 linear transformations is      2.01530788D-01
 INERTIA (POS,ZER,NEG) of reduced matrix is   46    0    0
 Determinant of reduced matrix is  6.67 * 10 ** 17.0

       No.  Residual tot.,    conf., and orb.    Bnorm      Frequency 
      ----------------------------------------------------------------
         1    3.25344D-04  0.00D+00  3.25D-04  3.69D-01    0.00000D+00

 *** THE REQUESTED    1 SOLUTION VECTORS CONVERGED

 Convergence of RSP solution vectors, threshold = 1.00D-03
 ---------------------------------------------------------------
 (dimension of paired reduced space:   46)
 RSP solution vector no.    1; norm of residual   8.81D-04

 *** RSPCTL MICROITERATIONS CONVERGED
 OPERATOR TYPE    :AM02010y
 OPERATOR SYMMETRY:   1



 ---  SOLVING SETS OF LINEAR EQUATIONS FOR LINEAR RESPONSE PROPERTIES ---

 Operator symmetry = 1  ( A  ); triplet =   F


 --- Restart in LRST ---
 OPERATOR SYMMETRY               :    1
 HALF-DIMENSION OF REDUCED SPACE :   23
 IBTYP :    1   1   1   1   1   1   1   1   1   1
            1   1   1   1   1   1   1   1   1   1
            1   1   1

 .RESTLR:   23 old trial vectors used.

 ** RSPCTL MICROITERATION NUMBER    1

 GP * SOLUTION vector at frequency     0.00000 a.u.
 after   24 linear transformations is      1.85746997D-01
 INERTIA (POS,ZER,NEG) of reduced matrix is   48    0    0
 Determinant of reduced matrix is  2.25 * 10 ** 18.0

       No.  Residual tot.,    conf., and orb.    Bnorm      Frequency 
      ----------------------------------------------------------------
         1    5.42186D-02  0.00D+00  5.42D-02  3.63D-01    0.00000D+00

 ** RSPCTL MICROITERATION NUMBER    2

 GP * SOLUTION vector at frequency     0.00000 a.u.
 after   25 linear transformations is      1.86678343D-01
 INERTIA (POS,ZER,NEG) of reduced matrix is   50    0    0
 Determinant of reduced matrix is  7.06 * 10 ** 18.0

       No.  Residual tot.,    conf., and orb.    Bnorm      Frequency 
      ----------------------------------------------------------------
         1    6.78943D-03  0.00D+00  6.79D-03  3.74D-01    0.00000D+00

 ** RSPCTL MICROITERATION NUMBER    3

 GP * SOLUTION vector at frequency     0.00000 a.u.
 after   26 linear transformations is      1.86685679D-01
 INERTIA (POS,ZER,NEG) of reduced matrix is   52    0    0
 Determinant of reduced matrix is  9.18 * 10 ** 19.0

       No.  Residual tot.,    conf., and orb.    Bnorm      Frequency 
      ----------------------------------------------------------------
         1    5.08515D-04  0.00D+00  5.09D-04  3.74D-01    0.00000D+00

 ** RSPCTL MICROITERATION NUMBER    4

 GP * SOLUTION vector at frequency     0.00000 a.u.
 after   27 linear transformations is      1.86685724D-01
 INERTIA (POS,ZER,NEG) of reduced matrix is   54    0    0
 Determinant of reduced matrix is  7.08 * 10 ** 20.0

       No.  Residual tot.,    conf., and orb.    Bnorm      Frequency 
      ----------------------------------------------------------------
         1    3.31847D-05  0.00D+00  3.32D-05  3.74D-01    0.00000D+00

 *** THE REQUESTED    1 SOLUTION VECTORS CONVERGED

 Convergence of RSP solution vectors, threshold = 1.00D-03
 ---------------------------------------------------------------
 (dimension of paired reduced space:   54)
 RSP solution vector no.    1; norm of residual   8.86D-05

 *** RSPCTL MICROITERATIONS CONVERGED
 OPERATOR TYPE    :AM02010z
 OPERATOR SYMMETRY:   1



 ---  SOLVING SETS OF LINEAR EQUATIONS FOR LINEAR RESPONSE PROPERTIES ---

 Operator symmetry = 1  ( A  ); triplet =   F


 --- Restart in LRST ---
 OPERATOR SYMMETRY               :    1
 HALF-DIMENSION OF REDUCED SPACE :   27
 IBTYP :    1   1   1   1   1   1   1   1   1   1
            1   1   1   1   1   1   1   1   1   1
            1   1   1   1   1   1   1

 .RESTLR:   27 old trial vectors used.

 ** RSPCTL MICROITERATION NUMBER    1

 GP * SOLUTION vector at frequency     0.00000 a.u.
 after   28 linear transformations is      2.14841284D-01
 INERTIA (POS,ZER,NEG) of reduced matrix is   56    0    0
 Determinant of reduced matrix is  4.41 * 10 ** 21.0

       No.  Residual tot.,    conf., and orb.    Bnorm      Frequency 
      ----------------------------------------------------------------
         1    4.00223D-02  0.00D+00  4.00D-02  3.94D-01    0.00000D+00

 ** RSPCTL MICROITERATION NUMBER    2

 GP * SOLUTION vector at frequency     0.00000 a.u.
 after   29 linear transformations is      2.15084367D-01
 INERTIA (POS,ZER,NEG) of reduced matrix is   58    0    0
 Determinant of reduced matrix is  6.18 * 10 ** 22.0

       No.  Residual tot.,    conf., and orb.    Bnorm      Frequency 
      ----------------------------------------------------------------
         1    2.31829D-03  0.00D+00  2.32D-03  3.96D-01    0.00000D+00

 ** RSPCTL MICROITERATION NUMBER    3

 GP * SOLUTION vector at frequency     0.00000 a.u.
 after   30 linear transformations is      2.15085018D-01
 INERTIA (POS,ZER,NEG) of reduced matrix is   60    0    0
 Determinant of reduced matrix is  8.48 * 10 ** 23.0

       No.  Residual tot.,    conf., and orb.    Bnorm      Frequency 
      ----------------------------------------------------------------
         1    1.33465D-04  0.00D+00  1.33D-04  3.96D-01    0.00000D+00

 *** THE REQUESTED    1 SOLUTION VECTORS CONVERGED

 Convergence of RSP solution vectors, threshold = 1.00D-03
 ---------------------------------------------------------------
 (dimension of paired reduced space:   60)
 RSP solution vector no.    1; norm of residual   3.37D-04

 *** RSPCTL MICROITERATIONS CONVERGED
 OPERATOR TYPE    :AM03010x
 OPERATOR SYMMETRY:   1



 ---  SOLVING SETS OF LINEAR EQUATIONS FOR LINEAR RESPONSE PROPERTIES ---

 Operator symmetry = 1  ( A  ); triplet =   F


 --- Restart in LRST ---
 OPERATOR SYMMETRY               :    1
 HALF-DIMENSION OF REDUCED SPACE :   30
 IBTYP :    1   1   1   1   1   1   1   1   1   1
            1   1   1   1   1   1   1   1   1   1
            1   1   1   1   1   1   1   1   1   1

 .RESTLR:   30 old trial vectors used.

 ** RSPCTL MICROITERATION NUMBER    1

 GP * SOLUTION vector at frequency     0.00000 a.u.
 after   31 linear transformations is      2.01399218D-01
 INERTIA (POS,ZER,NEG) of reduced matrix is   62    0    0
 Determinant of reduced matrix is  5.06 * 10 ** 24.0

       No.  Residual tot.,    conf., and orb.    Bnorm      Frequency 
      ----------------------------------------------------------------
         1    2.84331D-02  0.00D+00  2.84D-02  3.67D-01    0.00000D+00

 ** RSPCTL MICROITERATION NUMBER    2

 GP * SOLUTION vector at frequency     0.00000 a.u.
 after   32 linear transformations is      2.01530527D-01
 INERTIA (POS,ZER,NEG) of reduced matrix is   64    0    0
 Determinant of reduced matrix is  4.43 * 10 ** 25.0

       No.  Residual tot.,    conf., and orb.    Bnorm      Frequency 
      ----------------------------------------------------------------
         1    1.57165D-03  0.00D+00  1.57D-03  3.69D-01    0.00000D+00

 ** RSPCTL MICROITERATION NUMBER    3

 GP * SOLUTION vector at frequency     0.00000 a.u.
 after   33 linear transformations is      2.01530793D-01
 INERTIA (POS,ZER,NEG) of reduced matrix is   66    0    0
 Determinant of reduced matrix is  6.28 * 10 ** 26.0

       No.  Residual tot.,    conf., and orb.    Bnorm      Frequency 
      ----------------------------------------------------------------
         1    9.45920D-05  0.00D+00  9.46D-05  3.69D-01    0.00000D+00

 *** THE REQUESTED    1 SOLUTION VECTORS CONVERGED

 Convergence of RSP solution vectors, threshold = 1.00D-03
 ---------------------------------------------------------------
 (dimension of paired reduced space:   66)
 RSP solution vector no.    1; norm of residual   2.56D-04

 *** RSPCTL MICROITERATIONS CONVERGED
 OPERATOR TYPE    :AM03010y
 OPERATOR SYMMETRY:   1



 ---  SOLVING SETS OF LINEAR EQUATIONS FOR LINEAR RESPONSE PROPERTIES ---

 Operator symmetry = 1  ( A  ); triplet =   F


 --- Restart in LRST ---
 OPERATOR SYMMETRY               :    1
 HALF-DIMENSION OF REDUCED SPACE :   33
 IBTYP :    1   1   1   1   1   1   1   1   1   1
            1   1   1   1   1   1   1   1   1   1
            1   1   1   1   1   1   1   1   1   1
            1   1   1

 .RESTLR:   33 old trial vectors used.

 ** RSPCTL MICROITERATION NUMBER    1

 GP * SOLUTION vector at frequency     0.00000 a.u.
 after   34 linear transformations is      1.85982568D-01
 INERTIA (POS,ZER,NEG) of reduced matrix is   68    0    0
 Determinant of reduced matrix is  2.99 * 10 ** 27.0

       No.  Residual tot.,    conf., and orb.    Bnorm      Frequency 
      ----------------------------------------------------------------
         1    5.56252D-02  0.00D+00  5.56D-02  3.66D-01    0.00000D+00

 ** RSPCTL MICROITERATION NUMBER    2

 GP * SOLUTION vector at frequency     0.00000 a.u.
 after   35 linear transformations is      1.86682436D-01
 INERTIA (POS,ZER,NEG) of reduced matrix is   70    0    0
 Determinant of reduced matrix is  1.89 * 10 ** 28.0

       No.  Residual tot.,    conf., and orb.    Bnorm      Frequency 
      ----------------------------------------------------------------
         1    4.91572D-03  0.00D+00  4.92D-03  3.74D-01    0.00000D+00

 ** RSPCTL MICROITERATION NUMBER    3

 GP * SOLUTION vector at frequency     0.00000 a.u.
 after   36 linear transformations is      1.86685711D-01
 INERTIA (POS,ZER,NEG) of reduced matrix is   72    0    0
 Determinant of reduced matrix is  3.72 * 10 ** 29.0

       No.  Residual tot.,    conf., and orb.    Bnorm      Frequency 
      ----------------------------------------------------------------
         1    2.85559D-04  0.00D+00  2.86D-04  3.74D-01    0.00000D+00

 *** THE REQUESTED    1 SOLUTION VECTORS CONVERGED

 Convergence of RSP solution vectors, threshold = 1.00D-03
 ---------------------------------------------------------------
 (dimension of paired reduced space:   72)
 RSP solution vector no.    1; norm of residual   7.63D-04

 *** RSPCTL MICROITERATIONS CONVERGED
 OPERATOR TYPE    :AM03010z
 OPERATOR SYMMETRY:   1



 ---  SOLVING SETS OF LINEAR EQUATIONS FOR LINEAR RESPONSE PROPERTIES ---

 Operator symmetry = 1  ( A  ); triplet =   F


 --- Restart in LRST ---
 OPERATOR SYMMETRY               :    1
 HALF-DIMENSION OF REDUCED SPACE :   36
 IBTYP :    1   1   1   1   1   1   1   1   1   1
            1   1   1   1   1   1   1   1   1   1
            1   1   1   1   1   1   1   1   1   1
            1   1   1   1   1   1

 .RESTLR:   36 old trial vectors used.

 ** RSPCTL MICROITERATION NUMBER    1

 GP * SOLUTION vector at frequency     0.00000 a.u.
 after   37 linear transformations is      2.15037562D-01
 INERTIA (POS,ZER,NEG) of reduced matrix is   74    0    0
 Determinant of reduced matrix is  2.81 * 10 ** 30.0

       No.  Residual tot.,    conf., and orb.    Bnorm      Frequency 
      ----------------------------------------------------------------
         1    1.97214D-02  0.00D+00  1.97D-02  3.96D-01    0.00000D+00

 ** RSPCTL MICROITERATION NUMBER    2

 GP * SOLUTION vector at frequency     0.00000 a.u.
 after   38 linear transformations is      2.15084967D-01
 INERTIA (POS,ZER,NEG) of reduced matrix is   76    0    0
 Determinant of reduced matrix is  2.79 * 10 ** 31.0

       No.  Residual tot.,    conf., and orb.    Bnorm      Frequency 
      ----------------------------------------------------------------
         1    7.35052D-04  0.00D+00  7.35D-04  3.96D-01    0.00000D+00

 ** RSPCTL MICROITERATION NUMBER    3

 GP * SOLUTION vector at frequency     0.00000 a.u.
 after   39 linear transformations is      2.15085020D-01
 INERTIA (POS,ZER,NEG) of reduced matrix is   78    0    0
 Determinant of reduced matrix is  3.33 * 10 ** 32.0

       No.  Residual tot.,    conf., and orb.    Bnorm      Frequency 
      ----------------------------------------------------------------
         1    3.03918D-05  0.00D+00  3.04D-05  3.96D-01    0.00000D+00

[...]
    4       5.16475228302357447515E-13
    6       1.63016952865755178291E-12
    8       8.86380684035844192228E-12
   10       9.20668514197981253216E-11
   12       1.26583898523596647512E-09
   14       1.85168803170510937136E-08
   16       2.73162405029557937199E-07
   18       4.02537607072486479815E-06
   20       5.92007433932049945591E-05
   22       8.69343387552996707882E-04
   24       1.27534284913976021097E-02
   26       1.86980202218644753209E-01
   28       2.74031513608069277055E+00
   30       4.01518029203977917518E+01
   32       5.88230918780193064777E+02
   34       8.61692636068971660279E+03
   36       1.26221404156827411498E+05
   38       1.84883676697552017868E+06


 AM03010y AM020100

   k               Moment = S(-k-2)
    0      -3.84222432398621153346E-14
    2      -9.36417258208485626566E-14
    4      -2.09615824770469630802E-13
    6      -2.39216945339823534764E-13
    8       3.27406889935798483166E-12
   10       6.27011492047963082350E-11
   12       9.34305630440088443044E-10
   14       1.35240717364531735176E-08
   16       1.95813026540847473703E-07
   18       2.84513072820011974663E-06
   20       4.14563410982759510842E-05
   22       6.05196518999824789944E-04
   24       8.84545934635905251042E-03
   26       1.29381085636017578722E-01
   28       1.89333577859135604449E+00
   30       2.77150880706821496346E+01
   32       4.05779262965968541721E+02
   34       5.94180989307754862239E+03
   36       8.70129678303598193452E+04
   38       1.27430457336281077005E+06


 AM03010y AM030100

   k               Moment = S(-k-2)
    0      -4.15598489828093108151E-14
    2      -1.04587389017835055496E-13
    4      -3.07780927665605231510E-13
    6      -1.39701598515695330387E-12
    8      -1.20966444299824478714E-11
   10      -1.52411889060329117606E-10
   12      -2.14493634487087792486E-09
   14      -3.10038890369997476814E-08
   16      -4.51356225373559480328E-07
   18      -6.58713726284171682536E-06
   20      -9.62462484771619549784E-05
   22      -1.40727505219897294081E-03
   24      -2.05866088015360972074E-02
   26      -3.01259990181717896007E-01
   28      -4.40968229183134585725E+00
   30      -6.45582952337245927765E+01
   32      -9.45264829989254167231E+02
   34      -1.38418908601440653001E+04
   36      -2.02705752957937482279E+05
   38      -2.96863653747232304886E+06


 AM03010y AM01080x

   k               Moment = S(-k-2)
    0       2.70418906399378980958E-15
    2      -9.87392690812391961266E-15
    4      -1.21499910849286379121E-13
    6      -1.33857535216350369456E-12
    8      -1.67491932151191457149E-11
   10      -2.27736340085618919594E-10
   12      -3.21756830918397991926E-09
   14      -4.62314054005314659039E-08
   16      -6.69564626101852767566E-07
   18      -9.73783820110526517511E-06
   20      -1.41967833843991309440E-04
   22      -2.07290219991906193853E-03
   24      -3.02970071170847940478E-02
   26      -4.43108315197222768500E-01
   28      -6.48360291262939991697E+00
   30      -9.48980355878785957202E+01
   32      -1.38928168925310865234E+03
   34      -2.03416865471641613112E+04
   36      -2.97870464117500872817E+05
   38      -4.36212581597621459514E+06


 AM03010y AM01080y

   k               Moment = S(-k-2)
    0       4.23651381066305732226E-01
    2       2.80165274782817652621E+00
    4       3.54545456601702184685E+01
    6       5.10516067157325551307E+02
    8       7.47829522739246476704E+03
   10       1.09690398964929685462E+05
   12       1.60814125163365155458E+06
   14       2.35662698614106737077E+07
   16       3.45261329697417974472E+08
   18       5.05763103683065700531E+09
   20       7.40826590631581268311E+10
   22       1.08510249876869653320E+12
   24       1.58934141687179453125E+13
   26       2.32787510459284062500E+14
   28       3.40957405523307600000E+15
   30       4.99389660648874240000E+16
   32       7.31439547036402304000E+17
   34       1.07131468955161743360E+19
   36       1.56911778372206133248E+20
   38       2.29823248576371805389E+21


 AM03010y AM01080z

   k               Moment = S(-k-2)
    0       1.63086490863926084836E-13
    2       4.09803163208383803336E-13
    4       1.06930845182350201864E-12
    6       3.26246547050432723517E-12
    8       1.66971383133895502657E-11
   10       1.75358786544619682739E-10
   12       2.53512882271601138161E-09
   14       3.86713735671151395764E-08
   16       5.87028912931651545541E-07
   18       8.81469035922574098917E-06
   20       1.31242119178314679395E-04
   22       1.94291384315431470142E-03
   24       2.86560459316887172765E-02
   26       4.21633029601965969579E-01
   28       6.19408562333886081319E+00
   30       9.09033603439478099517E+01
   32       1.33319727653953464142E+03
   34       1.95442365700804293738E+04
   36       2.86428836430155555718E+05
   38       4.19691791868941020221E+06


 AM03010y AM02010x

   k               Moment = S(-k-2)
    0       4.63126713440108045052E-14
    2       1.11132219163958276936E-13
    4       2.59033223221291275764E-13
    6       4.98627090578645779482E-13
    8      -5.54821266245262145947E-13
   10      -2.59242671450662252274E-11
   12      -4.10813025694761645717E-10
   14      -5.98447522499972922773E-09
   16      -8.66469004607056697157E-08
   18      -1.25885595429496993127E-06
   20      -1.83479660636737246628E-05
   22      -2.67968407812451769965E-04
   24      -3.91829850298096391686E-03
   26      -5.73336923386862790109E-02
   28      -8.39256458607187116883E-01
   30      -1.22879688355398926092E+01
   32      -1.79938887881784154388E+02
   34      -2.63515186165614795755E+03
   36      -3.85929463239681572304E+04
   38      -5.65227831949756829999E+05


 AM03010y AM02010y

   k               Moment = S(-k-2)
    0       1.45204161561119076546E-02
    2       2.12503867450846484211E-01
    4       3.43300775186846518494E+00
    6       5.41288658404048987904E+01
    8       8.31207285105999289954E+02
   10       1.25530722836330460268E+04
   12       1.87634131384265027009E+05
   14       2.78616976286265579984E+06
   16       4.11919796660928577185E+07
   18       6.07218389990646719933E+08
   20       8.93325101230405235291E+09
   22       1.31243694694413009644E+11
   24       1.92635665686894360352E+12
   26       2.82560373734682656250E+13
   28       4.14275870470557125000E+14
   30       6.07200766070361900000E+15
   32       8.89776839782853120000E+16
   34       1.30366179703421670400E+18
   36       1.90987024985746350080E+19
   38       2.79776819448374919168E+20


 AM03010y AM02010z

   k               Moment = S(-k-2)
    0       4.23669505387633534314E-14
    2       9.90371281648409423803E-14
    4       2.16943233650795908293E-13
    6       3.20453655883070377524E-13
    8      -1.48151190962450845648E-12
   10      -3.15253354298171360049E-11
   12      -4.45130199218342759638E-10
   14      -6.13562695200868207298E-09
   16      -8.58805365473336298218E-08
   18      -1.22033220094927078604E-06
   20      -1.75240898790918233339E-05
   22      -2.53387555802980942148E-04
   24      -3.68017223862202686943E-03
   26      -5.36045234927115740731E-02
   28      -7.82254451160347530347E-01
   30      -1.14294969354997917321E+01
   32      -1.67131020883829393142E+02
   34      -2.44522948030603902225E+03
   36      -3.57879818188899371307E+04
   38      -5.23912308148823329248E+05


 AM03010y AM03010x

   k               Moment = S(-k-2)
    0      -4.68091877849615588769E-14
    2      -1.16521907031071889129E-13
    4      -3.11460385367166781334E-13
    6      -1.07783904856415363590E-12
    8      -6.83572581773938219555E-12
   10      -7.62579157507989827929E-11
   12      -1.05162359010353468240E-09
   14      -1.52337620153872893874E-08
   16      -2.22862945073170637608E-07
   18      -3.26582152422652104167E-06
   20      -4.78595202350356571284E-05
   22      -7.01231310142752810484E-04
   24      -1.02726902712426543252E-02
   26      -1.50474570946032948360E-01
   28      -2.20403078636190175033E+00
   30      -3.22819587968256129784E+01
   32      -4.72820751207314629028E+02
   34      -6.92518100335545204871E+03
   36      -1.01429757090980085195E+05
   38      -1.48559364548398437910E+06


 AM03010y AM03010y

   k               Moment = S(-k-2)
    0       1.86685722280631821723E-01
    2       6.30082414572871840619E-01
    4       5.93342151308994569803E+00
    6       7.48211742047394210431E+01
    8       1.02184605381177914296E+03
   10       1.43873754809410220332E+04
   12       2.05659745502886595204E+05
   14       2.96536701702557271346E+06
   16       4.29855703620638921857E+07
   18       6.25244808067283630371E+08
   20       9.11488752261013603210E+09
   22       1.33076788471764038086E+11
   24       1.94487464916824829102E+12
   26       2.84432213195950000000E+13
   28       4.16168681308237562500E+14
   30       6.09115223574823800000E+15
   32       8.91713454557820000000E+16
   34       1.30562097007434547200E+18
   36       1.91185230393152389120E+19
   38       2.79977338908585623552E+20


 AM03010z AM010800

   k               Moment = S(-k-2)
    0       1.16435774072908615473E-01
    2       4.56195936593031980966E-01
    4       2.86932419005095695752E+00
    6       2.21639898454121109239E+01
    8       1.83055014313111314550E+02
   10       1.54515790357719993153E+03
   12       1.31457833596286345710E+04
   14       1.12209243936944243615E+05
   16       9.59303374587299302220E+05
   18       8.20823731804830022156E+06
   20       7.02676465025947690010E+07
   22       6.01713018151817202568E+08
   24       5.15352455731028079987E+09
   26       4.41440079729080429077E+10
   28       3.78158633508735839844E+11
   30       3.23966361167268798828E+12
   32       2.77550590175670468750E+13
   34       2.37791250637495468750E+14
   36       2.03731303196240975000E+15
   38       1.74552288561613660000E+16


 AM03010z AM020100

   k               Moment = S(-k-2)
    0       6.49372350690262303136E-03
    2      -4.23596382781006065843E-03
    4      -4.75173431944725721543E-01
    6      -6.49152445834197777685E+00
    8      -6.78543063259504037887E+01
   10      -6.42968646814515182086E+02
   12      -5.82826139875070293783E+03
   14      -5.16633667248399651726E+04
   16      -4.52407111358232214116E+05
   18      -3.93349061556532280520E+06
   20      -3.40486657504160478711E+07
   22      -2.93872939937004029751E+08
   24      -2.53137619201213264465E+09
   26      -2.17743889508634948730E+10
   28      -1.87110094870354095459E+11
   30      -1.60667439071455322266E+12
   32      -1.37886405908647109375E+13
   34      -1.18287407813770546875E+14
   36      -1.01443343971205187500E+15
   38      -8.69780304469339400000E+15


 AM03010z AM030100

   k               Moment = S(-k-2)
    0      -1.22927360439544816617E-01
    2      -4.51841107016275611574E-01
    4      -2.39239025911448210948E+00
    6      -1.56533571446541746042E+01
    8      -1.15017112989772584797E+02
   10      -9.00520458547373777947E+02
   12      -7.30276236786690969893E+03
   14      -6.04171733052167837741E+04
   16      -5.05782469038328737952E+05
   18      -4.26514836250459030271E+06
   20      -3.61364604358410388231E+07
   22      -3.07131583462098419666E+08
   24      -2.61607025566815376282E+09
   26      -2.23175000065992126465E+10
   28      -1.90601751749761596680E+11
   30      -1.62915983988662792969E+12
   32      -1.39336006642919277344E+13
   34      -1.19222614734748546875E+14
   36      -1.02046975146140625000E+15
   38      -8.73677654688964400000E+15


 AM03010z AM01080x

   k               Moment = S(-k-2)
    0      -3.04966602426085080235E-02
    2      -5.73007176714890098523E-01
    4      -2.79980473182306299762E+00
    6      -1.27808175042957117284E+01
    8      -5.98737719380193453844E+01
   10      -2.94699886527210651366E+02
   12      -1.53484063705710173053E+03
   14      -8.44276041666138371511E+03
   16      -4.86716029866469689296E+04
   18      -2.91034570744775934145E+05
   20      -1.78692538957616849802E+06
   22      -1.11725488687760699540E+07
   24      -7.06984255334399193525E+07
   26      -4.50846068786393165588E+08
   28      -2.88921341277265357971E+09
   30      -1.85724826406004638672E+10
   32      -1.19617528651260452271E+11
   34      -7.71324235611153198242E+11
   36      -4.97735114995149218750E+12
   38      -3.21333163046254101562E+13


 AM03010z AM01080y

   k               Moment = S(-k-2)
    0      -6.93331619998666177675E-14
    2      -1.19295456669601031485E-13
    4       5.72063671941001038090E-14
    6       4.40294290495561065169E-12
    8       7.09220809816066228980E-11
   10       1.05022962579321294307E-09
   12       1.54306149652983942588E-08
   14       2.26534196247394559052E-07
   16       3.32383533042505711097E-06
   18       4.87419838325062868456E-05
   20       7.14462313320875556065E-04
   22       1.04695391217690305513E-02
   24       1.53388873997357788603E-01
   26       2.24703222576012073830E+00
   28       3.29149914050464005300E+01
   30       4.82124840634617214619E+02
   32       7.06177855004169759923E+03
   34       1.03433692991099334904E+05
   36       1.51497695682906289585E+06
   38       2.21895091527153626084E+07


 AM03010z AM01080z

   k               Moment = S(-k-2)
    0       3.69573041113877232000E-01
    2       1.78577652920858254149E+00
    4       1.19471674707079973388E+01
    6       9.39632173411789750617E+01
    8       7.82455883695365741914E+02
   10       6.64134052563688419468E+03
   12       5.67345999427219285280E+04
   14       4.85716795025965897366E+05
   16       4.16124894389407709241E+06
   18       3.56574807258983924985E+07
   20       3.05556534366431891918E+08
   22       2.61833531861877012253E+09
   24       2.24361193481204833984E+10
   26       1.92247277329534637451E+11
   28       1.64727038754216650391E+12
   30       1.41144478506291152344E+13
   32       1.20936894439261234375E+14
   34       1.03621725140662137500E+15
   36       8.87852340660155000000E+15
   38       7.60727603598859200000E+16


 AM03010z AM02010x

   k               Moment = S(-k-2)
    0      -1.23441655241910818591E-02
    2      -3.59101288900859974551E-02
    4       7.50950592735320360260E-02
    6       2.76090719601271539219E+00
    8       3.49577098146232003728E+01
   10       3.59518541079027443175E+02
   12       3.40553195063013890831E+03
   14       3.09996597889857985137E+04
   16       2.76161409049642621540E+05
   18       2.42922634609661391005E+06
   20       2.11996104820617772639E+07
   22       1.84042353092664927244E+08
   24       1.59203460720254230499E+09
   26       1.37369609824099979401E+10
   28       1.18314918183629287720E+11
   30       1.01768158806658691406E+12
   32       8.74498625993904882812E+12
   34       7.50914601176810468750E+13
   36       6.44445682431474000000E+14
   38       5.52847921252434100000E+15


 AM03010z AM02010y

   k               Moment = S(-k-2)
    0      -6.49399829003859853570E-14
    2      -1.60171862855808532417E-13
    4      -3.42055092117756216932E-13
    6      -2.34001191521620661174E-13
    8       7.41858093690940658949E-12
   10       1.30419242509189833806E-10
   12       1.93262111071372500954E-09
   14       2.81379732593181126506E-08
   16       4.09944989167283099968E-07
   18       5.98394622752461205619E-06
   20       8.74603756366878717270E-05
   22       1.27929928016072666681E-03
   24       1.87213164457243654015E-02
   26       2.74048260340455596129E-01
   28       4.01234941819295620746E+00
   30       5.87521409009338881901E+01
   32       8.60368110054075941662E+02
   34       1.25999582228457402380E+04
   36       1.84531479483350558439E+05
   38       2.70260899944010144100E+06


 AM03010z AM02010z

   k               Moment = S(-k-2)
    0       9.20005172385906198895E-03
    2       9.94697146846863222702E-02
    4       1.11244459673949713796E+00
    6       1.13142178301980678157E+01
    8       1.07196148202572459240E+02
   10       9.75823566953233239474E+02
   12       8.68760051935601404693E+03
   14       7.63542292188120045466E+04
   16       6.65808510477433446795E+05
   18       5.77649632873196061701E+06
   20       4.99453076665411517024E+07
   22       4.30810344577557623386E+08
   24       3.70963875533616876602E+09
   26       3.19030171162671394348E+10
   28       2.74112242418994842529E+11
   30       2.35355503234430761719E+12
   32       2.01973797451929257812E+13
   34       1.73259280204868343750E+14
   36       1.48583526906256350000E+15
   38       1.27393983246821260000E+16


 AM03010z AM03010x

   k               Moment = S(-k-2)
    0      -4.59313352960806497993E-02
    2      -2.73133075474752573530E-01
    4      -1.62487062627494904810E+00
    6      -1.08450680471404989902E+01
    8      -7.91487692308725172552E+01
   10      -6.11672705510366085946E+02
   12      -4.89610633325109301950E+03
   14      -4.00529966692770613008E+04
   16      -3.32243027369018003810E+05
   18      -2.78145920297288708389E+06
   20      -2.34328724567165151238E+07
   22      -1.98292123883970677853E+08
   24      -1.68334342696678543091E+09
   26      -1.43236835916514930725E+10
   28      -1.22091979470510604858E+11
   30      -1.04202616584404638672E+12
   32      -8.90202136533385351562E+12
   34      -7.61049481522044531250E+13
   36      -6.50988874437708875000E+14
   38      -5.57073229496350100000E+15


 AM03010z AM03010y

   k               Moment = S(-k-2)
    0       4.56671272688831724415E-14
    2       1.10902698710537587762E-13
    4       2.97245616226585189098E-13
    6       1.17576222018917238881E-12
    8       9.73061429076702366742E-12
   10       1.26602655589197954155E-10
   12       1.83938462088359227813E-09
   14       2.71424612155969641538E-08
   16       4.00349405646940915581E-07
   18       5.89270767517692435091E-06
   20       8.65884664991535069403E-05
   22       1.27089586215742636477E-03
   24       1.86396496250295154451E-02
   26       2.73248834288009334603E-01
   28       4.00447646548458635607E+00
   30       5.86742210153676353457E+01
   32       8.59593817245789864501E+02
   34       1.25922389127986461972E+04
   36       1.84454316732907464029E+05
   38       2.70183597572097834200E+06


 AM03010z AM03010z

   k               Moment = S(-k-2)
    0       2.15085019898951429473E-01
    2       6.18508399201616931862E-01
    4       3.24889628578138367487E+00
    6       2.17598087468677192646E+01
    8       1.63037141537948656378E+02
   10       1.29260029462519628396E+03
   12       1.05612521177290709602E+04
   14       8.77640376952568767592E+04
   16       7.36688449419406591915E+05
   18       6.22275355660926178098E+06
   20       5.27800063107385486364E+07
   22       4.48922426236806273460E+08
   24       3.82580848288725519180E+09
   26       3.26499882946225776672E+10
   28       2.78923110814003112793E+11
   30       2.38457243763695312500E+12
   32       2.03974991058846250000E+13
   34       1.74551003596327812500E+14
   36       1.49417550122127200000E+15
   38       1.27932587719330480000E+16


 Time used in c6/c8 calculation     745.60 CPU seconds for symmetry 1

  Total CPU  time used in RESPONSE: 12 minutes 49 seconds
  Total wall time used in RESPONSE: 12 minutes 58 seconds


                   .-------------------------------------------.
                   | End of Dynamic Property Section (RESPONS) |
                   `-------------------------------------------'

  Total CPU  time used in DALTON: 13 minutes 14 seconds
  Total wall time used in DALTON: 13 minutes 23 seconds

 NOTE:    1 informational messages have been issued.
 Check output, result, and error files for "INFO".

 NOTE:    1 warnings have been issued.
 Check output, result, and error files for "WARNING".

 
     Date and time (Linux)  : Mon Jun 16 14:22:42 2025
     Host name              : D49833                                  
